 Entering Gaussian System, Link 0=/home/gaussian_mf/g03/g03
 Input=/home/papp/calc/leucine/G3MP2/cation/parent/leucine-1b1-G3MP2.gjf
 Output=/home/papp/calc/leucine/G3MP2/cation/parent/leucine-1b1-G3MP2.log
 Initial command:
 /home/gaussian_mf/g03/l1.exe /scratch1/papp/leucine-1b1-G3MP2.18069/Gau-18072.inp -scrdir=/scratch1/papp/leucine-1b1-G3MP2.18069/
 Entering Link 1 = /home/gaussian_mf/g03/l1.exe PID=     18073.
  
 Copyright (c) 1988,1990,1992,1993,1995,1998,2003,2004, Gaussian, Inc.
                  All Rights Reserved.
  
 This is the Gaussian(R) 03 program.  It is based on the
 the Gaussian(R) 98 system (copyright 1998, Gaussian, Inc.),
 the Gaussian(R) 94 system (copyright 1995, Gaussian, Inc.),
 the Gaussian 92(TM) system (copyright 1992, Gaussian, Inc.),
 the Gaussian 90(TM) system (copyright 1990, Gaussian, Inc.),
 the Gaussian 88(TM) system (copyright 1988, Gaussian, Inc.),
 the Gaussian 86(TM) system (copyright 1986, Carnegie Mellon
 University), and the Gaussian 82(TM) system (copyright 1983,
 Carnegie Mellon University). Gaussian is a federally registered
 trademark of Gaussian, Inc.
  
 This software contains proprietary and confidential information,
 including trade secrets, belonging to Gaussian, Inc.
  
 This software is provided under written license and may be
 used, copied, transmitted, or stored only in accord with that
 written license.
  
 The following legend is applicable only to US Government
 contracts under FAR:
  
                    RESTRICTED RIGHTS LEGEND
  
 Use, reproduction and disclosure by the US Government is
 subject to restrictions as set forth in subparagraphs (a)
 and (c) of the Commercial Computer Software - Restricted
 Rights clause in FAR 52.227-19.
  
 Gaussian, Inc.
 340 Quinnipiac St., Bldg. 40, Wallingford CT 06492
  
  
 ---------------------------------------------------------------
 Warning -- This program may not be used in any manner that
 competes with the business of Gaussian, Inc. or will provide
 assistance to any competitor of Gaussian, Inc.  The licensee
 of this program is prohibited from giving any competitor of
 Gaussian, Inc. access to this program.  By using this program,
 the user acknowledges that Gaussian, Inc. is engaged in the
 business of creating and licensing software in the field of
 computational chemistry and represents and warrants to the
 licensee that it is not a competitor of Gaussian, Inc. and that
 it will not use this program in any manner prohibited above.
 ---------------------------------------------------------------
  

 Cite this work as:
 Gaussian 03, Revision C.02,
 M. J. Frisch, G. W. Trucks, H. B. Schlegel, G. E. Scuseria, 
 M. A. Robb, J. R. Cheeseman, J. A. Montgomery, Jr., T. Vreven, 
 K. N. Kudin, J. C. Burant, J. M. Millam, S. S. Iyengar, J. Tomasi, 
 V. Barone, B. Mennucci, M. Cossi, G. Scalmani, N. Rega, 
 G. A. Petersson, H. Nakatsuji, M. Hada, M. Ehara, K. Toyota, 
 R. Fukuda, J. Hasegawa, M. Ishida, T. Nakajima, Y. Honda, O. Kitao, 
 H. Nakai, M. Klene, X. Li, J. E. Knox, H. P. Hratchian, J. B. Cross, 
 C. Adamo, J. Jaramillo, R. Gomperts, R. E. Stratmann, O. Yazyev, 
 A. J. Austin, R. Cammi, C. Pomelli, J. W. Ochterski, P. Y. Ayala, 
 K. Morokuma, G. A. Voth, P. Salvador, J. J. Dannenberg, 
 V. G. Zakrzewski, S. Dapprich, A. D. Daniels, M. C. Strain, 
 O. Farkas, D. K. Malick, A. D. Rabuck, K. Raghavachari, 
 J. B. Foresman, J. V. Ortiz, Q. Cui, A. G. Baboul, S. Clifford, 
 J. Cioslowski, B. B. Stefanov, G. Liu, A. Liashenko, P. Piskorz, 
 I. Komaromi, R. L. Martin, D. J. Fox, T. Keith, M. A. Al-Laham, 
 C. Y. Peng, A. Nanayakkara, M. Challacombe, P. M. W. Gill, 
 B. Johnson, W. Chen, M. W. Wong, C. Gonzalez, and J. A. Pople, 
 Gaussian, Inc., Wallingford CT, 2004.
 
 ******************************************
 Gaussian 03:  AM64L-G03RevC.02 12-Jun-2004
                26-Jun-2010 
 ******************************************
 %nprocshared=2
 Will use up to    2 processors via shared memory.
 %mem=2GB
 %chk=leucine-1b1-G3MP2.chk
 -----------------------
 # G3MP2 geom=checkpoint
 -----------------------
 1/18=20,29=2,38=1/1,3;
 2/9=110,40=1/2;
 3/5=1,6=6,7=1,11=9,16=1,25=1,30=1/1,2,3;
 4//1;
 5/5=2,38=5/2;
 6/7=2,8=2,9=2,10=2,28=1/1;
 7//1,2,3,16;
 1/18=20/3(1);
 99//99;
 2/9=110/2;
 3/5=1,6=6,7=1,11=9,16=1,25=1,30=1/1,2,3;
 4/5=5,16=3/1;
 5/5=2,38=5/2;
 7//1,2,3,16;
 1/18=20/3(-5);
 2/9=110/2;
 6/7=2,8=2,9=2,10=2,19=2,28=1/1;
 99/9=1/99;
 -----------
 leucine 1b1
 -----------
 Redundant internal coordinates taken from checkpoint file:
 leucine-1b1-G3MP2.chk
 Charge =  1 Multiplicity = 2
 C,0,1.4558579041,1.2502090654,-0.4635835146
 O,0,1.3925937979,2.4072739496,-0.8427525589
 O,0,2.4702986132,0.415398845,-0.810407653
 C,0,0.4241690795,0.5547900113,0.4036335358
 N,0,-0.4853292911,1.4836770737,1.0573509874
 H,0,0.0515705343,2.1149560287,1.6523700271
 H,0,-0.8920316564,2.0840547324,0.338482817
 C,0,-0.3580631102,-0.4341260587,-0.469557309
 C,0,-1.4746740647,-1.1748867574,0.2666179816
 C,0,-0.9493500842,-1.9322384841,1.4809906951
 H,0,-0.7908361815,0.1217999227,-1.3141962372
 H,0,-1.749087564,-2.5191271386,1.9433231787
 H,0,-0.1502943629,-2.6250313895,1.1920769594
 H,0,-0.56110718,-1.2492592876,2.2403445147
 H,0,0.3469846309,-1.1580016644,-0.8965067312
 C,0,-2.1823705461,-2.1212099491,-0.6999620871
 H,0,-1.4935416157,-2.894015764,-1.0585408944
 H,0,-2.5697209571,-1.5844119825,-1.5718555497
 H,0,-3.0236905788,-2.6223906251,-0.2116448131
 H,0,-2.1942367593,-0.4285728641,0.6196146319
 H,0,0.9678550795,-0.0022215322,1.1740617118
 H,0,3.0588872896,0.9398727265,-1.3925406422
 Recover connectivity data from disk.

 GradGradGradGradGradGradGradGradGradGradGradGradGradGradGradGradGradGrad
 Berny optimization.
 Initialization pass.
                           ----------------------------
                           !    Initial Parameters    !
                           ! (Angstroms and Degrees)  !
 --------------------------                            --------------------------
 ! Name  Definition              Value          Derivative Info.                !
 --------------------------------------------------------------------------------
 ! R1    R(1,2)                  1.2193         estimate D2E/DX2                !
 ! R2    R(1,3)                  1.3588         estimate D2E/DX2                !
 ! R3    R(1,4)                  1.5166         estimate D2E/DX2                !
 ! R4    R(3,22)                 0.98           estimate D2E/DX2                !
 ! R5    R(4,5)                  1.4551         estimate D2E/DX2                !
 ! R6    R(4,8)                  1.5337         estimate D2E/DX2                !
 ! R7    R(4,21)                 1.0952         estimate D2E/DX2                !
 ! R8    R(5,6)                  1.0202         estimate D2E/DX2                !
 ! R9    R(5,7)                  1.0211         estimate D2E/DX2                !
 ! R10   R(8,9)                  1.5289         estimate D2E/DX2                !
 ! R11   R(8,11)                 1.0999         estimate D2E/DX2                !
 ! R12   R(8,15)                 1.097          estimate D2E/DX2                !
 ! R13   R(9,10)                 1.5245         estimate D2E/DX2                !
 ! R14   R(9,16)                 1.5266         estimate D2E/DX2                !
 ! R15   R(9,20)                 1.0952         estimate D2E/DX2                !
 ! R16   R(10,12)                1.0944         estimate D2E/DX2                !
 ! R17   R(10,13)                1.0963         estimate D2E/DX2                !
 ! R18   R(10,14)                1.0926         estimate D2E/DX2                !
 ! R19   R(16,17)                1.0956         estimate D2E/DX2                !
 ! R20   R(16,18)                1.0947         estimate D2E/DX2                !
 ! R21   R(16,19)                1.0943         estimate D2E/DX2                !
 ! A1    A(2,1,3)              122.8477         estimate D2E/DX2                !
 ! A2    A(2,1,4)              125.2878         estimate D2E/DX2                !
 ! A3    A(3,1,4)              111.8459         estimate D2E/DX2                !
 ! A4    A(1,3,22)             105.7366         estimate D2E/DX2                !
 ! A5    A(1,4,5)              112.9153         estimate D2E/DX2                !
 ! A6    A(1,4,8)              108.485          estimate D2E/DX2                !
 ! A7    A(1,4,21)             107.3234         estimate D2E/DX2                !
 ! A8    A(5,4,8)              110.4013         estimate D2E/DX2                !
 ! A9    A(5,4,21)             108.5978         estimate D2E/DX2                !
 ! A10   A(8,4,21)             109.0117         estimate D2E/DX2                !
 ! A11   A(4,5,6)              109.1527         estimate D2E/DX2                !
 ! A12   A(4,5,7)              107.9392         estimate D2E/DX2                !
 ! A13   A(6,5,7)              104.8562         estimate D2E/DX2                !
 ! A14   A(4,8,9)              114.2523         estimate D2E/DX2                !
 ! A15   A(4,8,11)             108.1789         estimate D2E/DX2                !
 ! A16   A(4,8,15)             108.6183         estimate D2E/DX2                !
 ! A17   A(9,8,11)             109.1043         estimate D2E/DX2                !
 ! A18   A(9,8,15)             109.6996         estimate D2E/DX2                !
 ! A19   A(11,8,15)            106.7104         estimate D2E/DX2                !
 ! A20   A(8,9,10)             111.8746         estimate D2E/DX2                !
 ! A21   A(8,9,16)             109.5136         estimate D2E/DX2                !
 ! A22   A(8,9,20)             107.7516         estimate D2E/DX2                !
 ! A23   A(10,9,16)            110.8624         estimate D2E/DX2                !
 ! A24   A(10,9,20)            107.9501         estimate D2E/DX2                !
 ! A25   A(16,9,20)            108.7791         estimate D2E/DX2                !
 ! A26   A(9,10,12)            110.5543         estimate D2E/DX2                !
 ! A27   A(9,10,13)            110.8028         estimate D2E/DX2                !
 ! A28   A(9,10,14)            111.4386         estimate D2E/DX2                !
 ! A29   A(12,10,13)           107.7614         estimate D2E/DX2                !
 ! A30   A(12,10,14)           107.5337         estimate D2E/DX2                !
 ! A31   A(13,10,14)           108.6128         estimate D2E/DX2                !
 ! A32   A(9,16,17)            110.6718         estimate D2E/DX2                !
 ! A33   A(9,16,18)            111.367          estimate D2E/DX2                !
 ! A34   A(9,16,19)            110.9632         estimate D2E/DX2                !
 ! A35   A(17,16,18)           107.9196         estimate D2E/DX2                !
 ! A36   A(17,16,19)           107.8412         estimate D2E/DX2                !
 ! A37   A(18,16,19)           107.9361         estimate D2E/DX2                !
 ! D1    D(2,1,3,22)            -0.733          estimate D2E/DX2                !
 ! D2    D(4,1,3,22)           177.7692         estimate D2E/DX2                !
 ! D3    D(2,1,4,5)            -15.7954         estimate D2E/DX2                !
 ! D4    D(2,1,4,8)            106.9135         estimate D2E/DX2                !
 ! D5    D(2,1,4,21)          -135.4359         estimate D2E/DX2                !
 ! D6    D(3,1,4,5)            165.7462         estimate D2E/DX2                !
 ! D7    D(3,1,4,8)            -71.5449         estimate D2E/DX2                !
 ! D8    D(3,1,4,21)            46.1057         estimate D2E/DX2                !
 ! D9    D(1,4,5,6)            -59.9293         estimate D2E/DX2                !
 ! D10   D(1,4,5,7)             53.5069         estimate D2E/DX2                !
 ! D11   D(8,4,5,6)            178.4372         estimate D2E/DX2                !
 ! D12   D(8,4,5,7)            -68.1265         estimate D2E/DX2                !
 ! D13   D(21,4,5,6)            58.9741         estimate D2E/DX2                !
 ! D14   D(21,4,5,7)           172.4104         estimate D2E/DX2                !
 ! D15   D(1,4,8,9)           -177.853          estimate D2E/DX2                !
 ! D16   D(1,4,8,11)           -56.1332         estimate D2E/DX2                !
 ! D17   D(1,4,8,15)            59.3331         estimate D2E/DX2                !
 ! D18   D(5,4,8,9)            -53.6336         estimate D2E/DX2                !
 ! D19   D(5,4,8,11)            68.0861         estimate D2E/DX2                !
 ! D20   D(5,4,8,15)          -176.4475         estimate D2E/DX2                !
 ! D21   D(21,4,8,9)            65.5787         estimate D2E/DX2                !
 ! D22   D(21,4,8,11)         -172.7016         estimate D2E/DX2                !
 ! D23   D(21,4,8,15)          -57.2352         estimate D2E/DX2                !
 ! D24   D(4,8,9,10)           -56.9074         estimate D2E/DX2                !
 ! D25   D(4,8,9,16)           179.7655         estimate D2E/DX2                !
 ! D26   D(4,8,9,20)            61.5973         estimate D2E/DX2                !
 ! D27   D(11,8,9,10)         -178.117          estimate D2E/DX2                !
 ! D28   D(11,8,9,16)           58.5559         estimate D2E/DX2                !
 ! D29   D(11,8,9,20)          -59.6124         estimate D2E/DX2                !
 ! D30   D(15,8,9,10)           65.3173         estimate D2E/DX2                !
 ! D31   D(15,8,9,16)          -58.0099         estimate D2E/DX2                !
 ! D32   D(15,8,9,20)         -176.1781         estimate D2E/DX2                !
 ! D33   D(8,9,10,12)         -175.3846         estimate D2E/DX2                !
 ! D34   D(8,9,10,13)          -55.9801         estimate D2E/DX2                !
 ! D35   D(8,9,10,14)           65.0838         estimate D2E/DX2                !
 ! D36   D(16,9,10,12)         -52.8228         estimate D2E/DX2                !
 ! D37   D(16,9,10,13)          66.5817         estimate D2E/DX2                !
 ! D38   D(16,9,10,14)        -172.3544         estimate D2E/DX2                !
 ! D39   D(20,9,10,12)          66.2288         estimate D2E/DX2                !
 ! D40   D(20,9,10,13)        -174.3667         estimate D2E/DX2                !
 ! D41   D(20,9,10,14)         -53.3028         estimate D2E/DX2                !
 ! D42   D(8,9,16,17)           63.5401         estimate D2E/DX2                !
 ! D43   D(8,9,16,18)          -56.5089         estimate D2E/DX2                !
 ! D44   D(8,9,16,19)         -176.775          estimate D2E/DX2                !
 ! D45   D(10,9,16,17)         -60.3826         estimate D2E/DX2                !
 ! D46   D(10,9,16,18)         179.5684         estimate D2E/DX2                !
 ! D47   D(10,9,16,19)          59.3024         estimate D2E/DX2                !
 ! D48   D(20,9,16,17)        -178.9336         estimate D2E/DX2                !
 ! D49   D(20,9,16,18)          61.0174         estimate D2E/DX2                !
 ! D50   D(20,9,16,19)         -59.2487         estimate D2E/DX2                !
 --------------------------------------------------------------------------------
 Trust Radius=3.00D-01 FncErr=1.00D-07 GrdErr=1.00D-07
 Number of steps in this run= 118 maximum allowed number of steps= 132.
 GradGradGradGradGradGradGradGradGradGradGradGradGradGradGradGradGradGrad

                          Input orientation:                          
 ---------------------------------------------------------------------
 Center     Atomic     Atomic              Coordinates (Angstroms)
 Number     Number      Type              X           Y           Z
 ---------------------------------------------------------------------
    1          6             0        1.455858    1.250209   -0.463584
    2          8             0        1.392594    2.407274   -0.842753
    3          8             0        2.470299    0.415399   -0.810408
    4          6             0        0.424169    0.554790    0.403634
    5          7             0       -0.485329    1.483677    1.057351
    6          1             0        0.051571    2.114956    1.652370
    7          1             0       -0.892032    2.084055    0.338483
    8          6             0       -0.358063   -0.434126   -0.469557
    9          6             0       -1.474674   -1.174887    0.266618
   10          6             0       -0.949350   -1.932238    1.480991
   11          1             0       -0.790836    0.121800   -1.314196
   12          1             0       -1.749088   -2.519127    1.943323
   13          1             0       -0.150294   -2.625031    1.192077
   14          1             0       -0.561107   -1.249259    2.240345
   15          1             0        0.346985   -1.158002   -0.896507
   16          6             0       -2.182371   -2.121210   -0.699962
   17          1             0       -1.493542   -2.894016   -1.058541
   18          1             0       -2.569721   -1.584412   -1.571856
   19          1             0       -3.023691   -2.622391   -0.211645
   20          1             0       -2.194237   -0.428573    0.619615
   21          1             0        0.967855   -0.002222    1.174062
   22          1             0        3.058887    0.939873   -1.392541
 ---------------------------------------------------------------------
                    Distance matrix (angstroms):
                    1          2          3          4          5
     1  C    0.000000
     2  O    1.219250   0.000000
     3  O    1.358781   2.264964   0.000000
     4  C    1.516593   2.433726   2.383269   0.000000
     5  N    2.477086   2.826662   3.655883   1.455117   0.000000
     6  H    2.682735   2.847706   3.847598   2.032804   1.020207
     7  H    2.617479   2.592161   3.925510   2.018732   1.021093
     8  C    2.475344   3.358218   2.972794   1.533722   2.454713
     9  C    3.873280   4.720572   4.387688   2.572190   2.944830
    10  C    4.437834   5.451225   4.738766   3.038513   3.473221
    11  H    2.654145   3.195781   3.312854   2.148175   2.751778
    12  H    5.502070   6.473161   5.830754   4.067266   4.290044
    13  H    4.509814   5.643149   4.485718   3.326096   4.124547
    14  H    4.198418   5.166495   4.611680   2.756605   2.978952
    15  H    2.686355   3.715828   2.644138   2.151738   3.389509
    16  C    4.965788   5.771302   5.300369   3.895247   4.354688
    17  H    5.121282   6.039869   5.169703   4.208305   4.965651
    18  H    5.046645   5.671427   5.475477   4.176376   4.546492
    19  H    5.926791   6.723049   6.306394   4.728719   4.991335
    20  H    4.161108   4.800614   4.951277   2.805298   2.601668
    21  H    2.118634   3.170743   2.523859   1.095178   2.081649
    22  H    1.878556   2.287371   0.979994   3.211895   4.342714
                    6          7          8          9         10
     6  H    0.000000
     7  H    1.617912   0.000000
     8  C    3.341885   2.698015   0.000000
     9  C    3.882370   3.311395   1.528889   0.000000
    10  C    4.172649   4.176029   2.529545   1.524548   0.000000
    11  H    3.671898   2.567495   1.099891   2.155923   3.472358
    12  H    4.980136   4.949681   3.479105   2.166478   1.094427
    13  H    4.766561   4.842963   2.757583   2.171031   1.096323
    14  H    3.469731   3.851957   2.837118   2.176174   1.092617
    15  H    4.158881   3.683923   1.096984   2.161385   2.816455
    16  C    5.335641   4.519690   2.495483   1.526643   2.512490
    17  H    5.901373   5.205255   2.772593   2.170670   2.769545
    18  H    5.563463   4.463371   2.725738   2.178721   3.473680
    19  H    5.947624   5.195887   3.458409   2.173351   2.764817
    20  H    3.546798   2.843953   2.134915   1.095154   2.133711
    21  H    2.356013   2.917177   2.155478   2.857367   2.737672
    22  H    4.438046   4.462662   3.796751   5.270502   5.707204
                   11         12         13         14         15
    11  H    0.000000
    12  H    4.301648   0.000000
    13  H    3.773166   1.769668   0.000000
    14  H    3.816718   1.764110   1.777746   0.000000
    15  H    1.762666   3.782964   2.600316   3.266924   0.000000
    16  C    2.710119   2.707957   2.821876   3.469034   2.713676
    17  H    3.107137   3.035957   2.634757   3.802276   2.535259
    18  H    2.478302   3.728755   3.817831   4.322005   3.024086
    19  H    3.705650   2.505826   3.197944   3.736584   3.738305
    20  H    2.451952   2.514116   3.054479   2.442827   3.047703
    21  H    3.049558   3.782639   2.851265   2.242719   2.451237
    22  H    3.936464   6.797742   5.448636   5.576245   3.464324
                   16         17         18         19         20
    16  C    0.000000
    17  H    1.095579   0.000000
    18  H    1.094710   1.771078   0.000000
    19  H    1.094283   1.769850   1.770215   0.000000
    20  H    2.146263   3.063591   2.505892   2.488337   0.000000
    21  H    4.233911   4.405163   4.749509   4.971711   3.238520
    22  H    6.109065   5.961113   6.171337   7.147166   5.789363
                   21         22
    21  H    0.000000
    22  H    3.442006   0.000000
 Stoichiometry    C6H13NO2(1+,2)
 Framework group  C1[X(C6H13NO2)]
 Deg. of freedom    60
 Full point group                 C1      NOp   1
 Largest Abelian subgroup         C1      NOp   1
 Largest concise Abelian subgroup C1      NOp   1
                         Standard orientation:                         
 ---------------------------------------------------------------------
 Center     Atomic     Atomic              Coordinates (Angstroms)
 Number     Number      Type              X           Y           Z
 ---------------------------------------------------------------------
    1          6             0        1.961243   -0.224375    0.025205
    2          8             0        2.800678    0.206255   -0.747115
    3          8             0        2.122824   -1.381294    0.719263
    4          6             0        0.617156    0.419389    0.306370
    5          7             0        0.543348    1.799223   -0.149672
    6          1             0        1.260299    2.347674    0.325728
    7          1             0        0.809050    1.819317   -1.135385
    8          6             0       -0.475384   -0.423947   -0.362544
    9          6             0       -1.888123    0.138813   -0.204525
   10          6             0       -2.265844    0.322219    1.261059
   11          1             0       -0.238217   -0.505857   -1.433433
   12          1             0       -3.306840    0.647598    1.351755
   13          1             0       -2.160929   -0.620327    1.811079
   14          1             0       -1.641440    1.078451    1.742771
   15          1             0       -0.434088   -1.440252    0.048300
   16          6             0       -2.883884   -0.776832   -0.912122
   17          1             0       -2.899718   -1.766845   -0.443169
   18          1             0       -2.624604   -0.908175   -1.967543
   19          1             0       -3.896965   -0.366142   -0.862573
   20          1             0       -1.911215    1.122811   -0.684709
   21          1             0        0.467584    0.401576    1.391140
   22          1             0        2.994640   -1.735692    0.445900
 ---------------------------------------------------------------------
 Rotational constants (GHZ):      2.7948387      0.8546293      0.7963046
 Standard basis: 6-31G(d) (6D, 7F)
 There are   161 symmetry adapted basis functions of A   symmetry.
 Integral buffers will be    131072 words long.
 Raffenetti 2 integral format.
 Two-electron integral symmetry is turned on.
   161 basis functions,   304 primitive gaussians,   161 cartesian basis functions
    36 alpha electrons       35 beta electrons
       nuclear repulsion energy       482.0031305720 Hartrees.
 NAtoms=   22 NActive=   22 NUniq=   22 SFac= 1.00D+00 NAtFMM=   60 Big=F
 One-electron integrals computed using PRISM.
 NBasis=   161 RedAO= T  NBF=   161
 NBsUse=   161 1.00D-06 NBFU=   161
 Harris functional with IExCor=  205 diagonalized for initial guess.
 ExpMin= 1.61D-01 ExpMax= 5.48D+03 ExpMxC= 8.25D+02 IAcc=1 IRadAn=         1 AccDes= 1.00D-06
 HarFok:  IExCor= 205 AccDes= 1.00D-06 IRadAn=         1 IDoV=1
 ScaDFX=  1.000000  1.000000  1.000000  1.000000
 Initial guess orbital symmetries:
 Alpha Orbitals:
       Occupied  (A) (A) (A) (A) (A) (A) (A) (A) (A) (A) (A) (A)
                 (A) (A) (A) (A) (A) (A) (A) (A) (A) (A) (A) (A)
                 (A) (A) (A) (A) (A) (A) (A) (A) (A) (A) (A) (A)
       Virtual   (A) (A) (A) (A) (A) (A) (A) (A) (A) (A) (A) (A)
                 (A) (A) (A) (A) (A) (A) (A) (A) (A) (A) (A) (A)
                 (A) (A) (A) (A) (A) (A) (A) (A) (A) (A) (A) (A)
                 (A) (A) (A) (A) (A) (A) (A) (A) (A) (A) (A) (A)
                 (A) (A) (A) (A) (A) (A) (A) (A) (A) (A) (A) (A)
                 (A) (A) (A) (A) (A) (A) (A) (A) (A) (A) (A) (A)
                 (A) (A) (A) (A) (A) (A) (A) (A) (A) (A) (A) (A)
                 (A) (A) (A) (A) (A) (A) (A) (A) (A) (A) (A) (A)
                 (A) (A) (A) (A) (A) (A) (A) (A) (A) (A) (A) (A)
                 (A) (A) (A) (A) (A) (A) (A) (A) (A) (A) (A) (A)
                 (A) (A) (A) (A) (A)
 Beta  Orbitals:
       Occupied  (A) (A) (A) (A) (A) (A) (A) (A) (A) (A) (A) (A)
                 (A) (A) (A) (A) (A) (A) (A) (A) (A) (A) (A) (A)
                 (A) (A) (A) (A) (A) (A) (A) (A) (A) (A) (A)
       Virtual   (A) (A) (A) (A) (A) (A) (A) (A) (A) (A) (A) (A)
                 (A) (A) (A) (A) (A) (A) (A) (A) (A) (A) (A) (A)
                 (A) (A) (A) (A) (A) (A) (A) (A) (A) (A) (A) (A)
                 (A) (A) (A) (A) (A) (A) (A) (A) (A) (A) (A) (A)
                 (A) (A) (A) (A) (A) (A) (A) (A) (A) (A) (A) (A)
                 (A) (A) (A) (A) (A) (A) (A) (A) (A) (A) (A) (A)
                 (A) (A) (A) (A) (A) (A) (A) (A) (A) (A) (A) (A)
                 (A) (A) (A) (A) (A) (A) (A) (A) (A) (A) (A) (A)
                 (A) (A) (A) (A) (A) (A) (A) (A) (A) (A) (A) (A)
                 (A) (A) (A) (A) (A) (A) (A) (A) (A) (A) (A) (A)
                 (A) (A) (A) (A) (A) (A)
 The electronic state of the initial guess is 2-A.
 <S**2> of initial guess= 0.7500
 Requested convergence on RMS density matrix=1.00D-08 within 128 cycles.
 Requested convergence on MAX density matrix=1.00D-06.
 Requested convergence on             energy=1.00D-06.
 No special actions if energy rises.
 Keep R1 and R2 integrals in memory in canonical form, NReq=   173136208.
 Restarting incremental Fock formation.
 SCF Done:  E(UHF) =  -438.651133941     A.U. after   21 cycles
             Convg  =    0.6905D-08             -V/T =  2.0022
             S**2   =   0.7604
 Annihilation of the first spin contaminant:
 S**2 before annihilation     0.7604,   after     0.7501

 **********************************************************************

            Population analysis using the SCF density.

 **********************************************************************

 Orbital symmetries:
 Alpha Orbitals:
       Occupied  (A) (A) (A) (A) (A) (A) (A) (A) (A) (A) (A) (A)
                 (A) (A) (A) (A) (A) (A) (A) (A) (A) (A) (A) (A)
                 (A) (A) (A) (A) (A) (A) (A) (A) (A) (A) (A) (A)
       Virtual   (A) (A) (A) (A) (A) (A) (A) (A) (A) (A) (A) (A)
                 (A) (A) (A) (A) (A) (A) (A) (A) (A) (A) (A) (A)
                 (A) (A) (A) (A) (A) (A) (A) (A) (A) (A) (A) (A)
                 (A) (A) (A) (A) (A) (A) (A) (A) (A) (A) (A) (A)
                 (A) (A) (A) (A) (A) (A) (A) (A) (A) (A) (A) (A)
                 (A) (A) (A) (A) (A) (A) (A) (A) (A) (A) (A) (A)
                 (A) (A) (A) (A) (A) (A) (A) (A) (A) (A) (A) (A)
                 (A) (A) (A) (A) (A) (A) (A) (A) (A) (A) (A) (A)
                 (A) (A) (A) (A) (A) (A) (A) (A) (A) (A) (A) (A)
                 (A) (A) (A) (A) (A) (A) (A) (A) (A) (A) (A) (A)
                 (A) (A) (A) (A) (A)
 Beta  Orbitals:
       Occupied  (A) (A) (A) (A) (A) (A) (A) (A) (A) (A) (A) (A)
                 (A) (A) (A) (A) (A) (A) (A) (A) (A) (A) (A) (A)
                 (A) (A) (A) (A) (A) (A) (A) (A) (A) (A) (A)
       Virtual   (A) (A) (A) (A) (A) (A) (A) (A) (A) (A) (A) (A)
                 (A) (A) (A) (A) (A) (A) (A) (A) (A) (A) (A) (A)
                 (A) (A) (A) (A) (A) (A) (A) (A) (A) (A) (A) (A)
                 (A) (A) (A) (A) (A) (A) (A) (A) (A) (A) (A) (A)
                 (A) (A) (A) (A) (A) (A) (A) (A) (A) (A) (A) (A)
                 (A) (A) (A) (A) (A) (A) (A) (A) (A) (A) (A) (A)
                 (A) (A) (A) (A) (A) (A) (A) (A) (A) (A) (A) (A)
                 (A) (A) (A) (A) (A) (A) (A) (A) (A) (A) (A) (A)
                 (A) (A) (A) (A) (A) (A) (A) (A) (A) (A) (A) (A)
                 (A) (A) (A) (A) (A) (A) (A) (A) (A) (A) (A) (A)
                 (A) (A) (A) (A) (A) (A)
 The electronic state is 2-A.
 Alpha  occ. eigenvalues --  -20.79446 -20.75021 -15.97347 -11.59555 -11.51005
 Alpha  occ. eigenvalues --  -11.41370 -11.38624 -11.35531 -11.34363  -1.64140
 Alpha  occ. eigenvalues --   -1.57210  -1.53610  -1.28393  -1.21051  -1.09024
 Alpha  occ. eigenvalues --   -1.06861  -1.03170  -1.01013  -0.95667  -0.92899
 Alpha  occ. eigenvalues --   -0.89017  -0.86080  -0.84870  -0.81172  -0.78915
 Alpha  occ. eigenvalues --   -0.76145  -0.74094  -0.73208  -0.70523  -0.67404
 Alpha  occ. eigenvalues --   -0.66194  -0.65490  -0.64690  -0.61703  -0.61288
 Alpha  occ. eigenvalues --   -0.61069
 Alpha virt. eigenvalues --   -0.02143  -0.01026   0.03820   0.07316   0.08377
 Alpha virt. eigenvalues --    0.10327   0.12988   0.14003   0.15878   0.16735
 Alpha virt. eigenvalues --    0.17090   0.18202   0.19669   0.20926   0.22249
 Alpha virt. eigenvalues --    0.23809   0.24886   0.27636   0.29311   0.30306
 Alpha virt. eigenvalues --    0.35089   0.35833   0.51756   0.53387   0.55131
 Alpha virt. eigenvalues --    0.56690   0.57748   0.58770   0.63282   0.65064
 Alpha virt. eigenvalues --    0.67431   0.69321   0.71996   0.74082   0.74849
 Alpha virt. eigenvalues --    0.77649   0.79477   0.83223   0.83992   0.85150
 Alpha virt. eigenvalues --    0.86380   0.89215   0.89575   0.92319   0.94538
 Alpha virt. eigenvalues --    0.95846   0.96565   0.97890   1.01546   1.02667
 Alpha virt. eigenvalues --    1.03644   1.03795   1.04223   1.06798   1.08136
 Alpha virt. eigenvalues --    1.09591   1.10629   1.11508   1.14317   1.15052
 Alpha virt. eigenvalues --    1.18331   1.20344   1.23717   1.30986   1.35613
 Alpha virt. eigenvalues --    1.39976   1.47393   1.49338   1.51020   1.56765
 Alpha virt. eigenvalues --    1.57545   1.59048   1.66625   1.74229   1.75476
 Alpha virt. eigenvalues --    1.78378   1.84216   1.86381   1.88568   1.90234
 Alpha virt. eigenvalues --    1.93306   1.95136   1.96839   2.00373   2.04725
 Alpha virt. eigenvalues --    2.05415   2.06114   2.10757   2.12783   2.15881
 Alpha virt. eigenvalues --    2.17075   2.19961   2.23320   2.25702   2.30364
 Alpha virt. eigenvalues --    2.33157   2.38644   2.43524   2.44282   2.45402
 Alpha virt. eigenvalues --    2.47368   2.53297   2.55624   2.62722   2.64806
 Alpha virt. eigenvalues --    2.69774   2.71549   2.73370   2.80045   2.83372
 Alpha virt. eigenvalues --    2.92649   2.96338   2.99131   3.03816   3.17000
 Alpha virt. eigenvalues --    3.26860   3.84810   4.13032   4.32164   4.44896
 Alpha virt. eigenvalues --    4.55316   4.58628   4.61146   4.78833   4.90091
  Beta  occ. eigenvalues --  -20.79388 -20.75114 -15.93677 -11.59247 -11.51184
  Beta  occ. eigenvalues --  -11.41325 -11.38604 -11.35531 -11.34366  -1.63867
  Beta  occ. eigenvalues --   -1.53992  -1.47570  -1.27121  -1.19904  -1.08391
  Beta  occ. eigenvalues --   -1.06573  -1.01303  -0.98428  -0.93226  -0.88698
  Beta  occ. eigenvalues --   -0.88575  -0.84515  -0.81168  -0.78731  -0.76876
  Beta  occ. eigenvalues --   -0.74042  -0.73065  -0.70387  -0.67369  -0.66188
  Beta  occ. eigenvalues --   -0.65719  -0.64807  -0.61631  -0.61299  -0.61159
  Beta virt. eigenvalues --   -0.22646  -0.01372  -0.00209   0.05033   0.07627
  Beta virt. eigenvalues --    0.08689   0.10691   0.13301   0.14525   0.16203
  Beta virt. eigenvalues --    0.17060   0.17930   0.18547   0.20516   0.21021
  Beta virt. eigenvalues --    0.22691   0.23884   0.25244   0.27916   0.29545
  Beta virt. eigenvalues --    0.30500   0.36200   0.36660   0.52087   0.53568
  Beta virt. eigenvalues --    0.56044   0.56894   0.58685   0.60437   0.65063
  Beta virt. eigenvalues --    0.66277   0.69687   0.71035   0.73366   0.75390
  Beta virt. eigenvalues --    0.76610   0.77991   0.80856   0.83299   0.84330
  Beta virt. eigenvalues --    0.85483   0.88524   0.89514   0.90778   0.93142
  Beta virt. eigenvalues --    0.95184   0.96139   0.97032   0.98521   1.01724
  Beta virt. eigenvalues --    1.02934   1.03698   1.03862   1.04246   1.06833
  Beta virt. eigenvalues --    1.08176   1.09905   1.10747   1.12046   1.14481
  Beta virt. eigenvalues --    1.15239   1.19111   1.20704   1.24217   1.32214
  Beta virt. eigenvalues --    1.36262   1.41724   1.47869   1.51215   1.53326
  Beta virt. eigenvalues --    1.57092   1.58312   1.59355   1.67243   1.75026
  Beta virt. eigenvalues --    1.76192   1.78826   1.84443   1.86719   1.89410
  Beta virt. eigenvalues --    1.90555   1.93748   1.95503   1.97304   2.00667
  Beta virt. eigenvalues --    2.05895   2.06239   2.07271   2.11162   2.14065
  Beta virt. eigenvalues --    2.16774   2.17718   2.21210   2.24844   2.27071
  Beta virt. eigenvalues --    2.30503   2.34359   2.39335   2.43925   2.45158
  Beta virt. eigenvalues --    2.46439   2.47474   2.53657   2.55995   2.63082
  Beta virt. eigenvalues --    2.65515   2.70620   2.71643   2.73922   2.80291
  Beta virt. eigenvalues --    2.83535   2.92754   2.96489   2.99240   3.04128
  Beta virt. eigenvalues --    3.17195   3.27183   3.88490   4.13559   4.32336
  Beta virt. eigenvalues --    4.44910   4.55450   4.58639   4.61242   4.78844
  Beta virt. eigenvalues --    4.90120
          Condensed to atoms (all electrons):
              1          2          3          4          5          6
     1  C    4.091930   0.582474   0.322333   0.327512  -0.038020   0.001948
     2  O    0.582474   8.098494  -0.080669  -0.082661  -0.000239   0.002691
     3  O    0.322333  -0.080669   8.278201  -0.095873   0.001479   0.000039
     4  C    0.327512  -0.082661  -0.095873   5.448600   0.153058  -0.028830
     5  N   -0.038020  -0.000239   0.001479   0.153058   6.780916   0.297035
     6  H    0.001948   0.002691   0.000039  -0.028830   0.297035   0.255213
     7  H   -0.000669   0.009194   0.000164  -0.024443   0.282063  -0.013576
     8  C   -0.044855  -0.002030   0.002557   0.275475  -0.062207   0.003389
     9  C    0.002974  -0.000045   0.000020  -0.053076  -0.001938   0.000105
    10  C   -0.000047  -0.000002  -0.000001  -0.001990   0.000500  -0.000099
    11  H   -0.003500   0.001047   0.000073  -0.048469  -0.001242  -0.000192
    12  H    0.000003   0.000000   0.000000  -0.000031  -0.000023   0.000000
    13  H   -0.000090   0.000000   0.000001  -0.000931   0.000114   0.000003
    14  H    0.000258  -0.000001  -0.000006   0.001028  -0.000795   0.000010
    15  H   -0.004088   0.000073   0.002276  -0.035462   0.003033  -0.000051
    16  C   -0.000046   0.000000   0.000000   0.005280  -0.000299   0.000005
    17  H   -0.000005   0.000000  -0.000001  -0.000122   0.000002   0.000000
    18  H   -0.000004   0.000000   0.000000  -0.000025   0.000006   0.000000
    19  H    0.000001   0.000000   0.000000  -0.000113   0.000000   0.000000
    20  H   -0.000292   0.000003  -0.000002  -0.008746   0.002482   0.000174
    21  H   -0.028325   0.001291   0.003536   0.384818  -0.036199  -0.002896
    22  H   -0.011179   0.004320   0.248996   0.006260  -0.000092  -0.000004
              7          8          9         10         11         12
     1  C   -0.000669  -0.044855   0.002974  -0.000047  -0.003500   0.000003
     2  O    0.009194  -0.002030  -0.000045  -0.000002   0.001047   0.000000
     3  O    0.000164   0.002557   0.000020  -0.000001   0.000073   0.000000
     4  C   -0.024443   0.275475  -0.053076  -0.001990  -0.048469  -0.000031
     5  N    0.282063  -0.062207  -0.001938   0.000500  -0.001242  -0.000023
     6  H   -0.013576   0.003389   0.000105  -0.000099  -0.000192   0.000000
     7  H    0.260328  -0.000992  -0.000434   0.000051   0.003324  -0.000001
     8  C   -0.000992   5.301382   0.318437  -0.072645   0.399577   0.004781
     9  C   -0.000434   0.318437   5.122812   0.330912  -0.038845  -0.033163
    10  C    0.000051  -0.072645   0.330912   5.169323   0.004334   0.398724
    11  H    0.003324   0.399577  -0.038845   0.004334   0.488560  -0.000067
    12  H   -0.000001   0.004781  -0.033163   0.398724  -0.000067   0.461564
    13  H    0.000000  -0.003362  -0.039856   0.390604  -0.000008  -0.020608
    14  H   -0.000006  -0.006447  -0.040425   0.386042  -0.000195  -0.023793
    15  H   -0.000027   0.392020  -0.026731  -0.002168  -0.016115  -0.000058
    16  C   -0.000034  -0.065042   0.349489  -0.063656  -0.003040  -0.003794
    17  H    0.000001  -0.005715  -0.039551  -0.003721   0.000075  -0.000004
    18  H   -0.000002  -0.004446  -0.038267   0.004484   0.002224   0.000000
    19  H    0.000000   0.004879  -0.034858  -0.003608  -0.000044   0.002122
    20  H    0.000076  -0.053053   0.406483  -0.048205  -0.001735  -0.002286
    21  H    0.003190  -0.023564  -0.005058   0.002340   0.003270  -0.000067
    22  H   -0.000008  -0.000205   0.000006   0.000000  -0.000046   0.000000
             13         14         15         16         17         18
     1  C   -0.000090   0.000258  -0.004088  -0.000046  -0.000005  -0.000004
     2  O    0.000000  -0.000001   0.000073   0.000000   0.000000   0.000000
     3  O    0.000001  -0.000006   0.002276   0.000000  -0.000001   0.000000
     4  C   -0.000931   0.001028  -0.035462   0.005280  -0.000122  -0.000025
     5  N    0.000114  -0.000795   0.003033  -0.000299   0.000002   0.000006
     6  H    0.000003   0.000010  -0.000051   0.000005   0.000000   0.000000
     7  H    0.000000  -0.000006  -0.000027  -0.000034   0.000001  -0.000002
     8  C   -0.003362  -0.006447   0.392020  -0.065042  -0.005715  -0.004446
     9  C   -0.039856  -0.040425  -0.026731   0.349489  -0.039551  -0.038267
    10  C    0.390604   0.386042  -0.002168  -0.063656  -0.003721   0.004484
    11  H   -0.000008  -0.000195  -0.016115  -0.003040   0.000075   0.002224
    12  H   -0.020608  -0.023793  -0.000058  -0.003794  -0.000004   0.000000
    13  H    0.504056  -0.027333   0.002763  -0.002228   0.002271  -0.000083
    14  H   -0.027333   0.573047   0.000068   0.004648  -0.000037  -0.000109
    15  H    0.002763   0.000068   0.423721  -0.002310   0.002714   0.000030
    16  C   -0.002228   0.004648  -0.002310   5.118933   0.393414   0.393483
    17  H    0.002271  -0.000037   0.002714   0.393414   0.508681  -0.025339
    18  H   -0.000083  -0.000109   0.000030   0.393483  -0.025339   0.509781
    19  H    0.000021  -0.000049  -0.000011   0.396067  -0.022519  -0.021727
    20  H    0.004458  -0.002756   0.003887  -0.034652   0.004218  -0.002540
    21  H    0.000530  -0.000289  -0.001339  -0.000014   0.000006  -0.000006
    22  H    0.000000   0.000000  -0.000011   0.000000   0.000000   0.000000
             19         20         21         22
     1  C    0.000001  -0.000292  -0.028325  -0.011179
     2  O    0.000000   0.000003   0.001291   0.004320
     3  O    0.000000  -0.000002   0.003536   0.248996
     4  C   -0.000113  -0.008746   0.384818   0.006260
     5  N    0.000000   0.002482  -0.036199  -0.000092
     6  H    0.000000   0.000174  -0.002896  -0.000004
     7  H    0.000000   0.000076   0.003190  -0.000008
     8  C    0.004879  -0.053053  -0.023564  -0.000205
     9  C   -0.034858   0.406483  -0.005058   0.000006
    10  C   -0.003608  -0.048205   0.002340   0.000000
    11  H   -0.000044  -0.001735   0.003270  -0.000046
    12  H    0.002122  -0.002286  -0.000067   0.000000
    13  H    0.000021   0.004458   0.000530   0.000000
    14  H   -0.000049  -0.002756  -0.000289   0.000000
    15  H   -0.000011   0.003887  -0.001339  -0.000011
    16  C    0.396067  -0.034652  -0.000014   0.000000
    17  H   -0.022519   0.004218   0.000006   0.000000
    18  H   -0.021727  -0.002540  -0.000006   0.000000
    19  H    0.478509  -0.002871  -0.000001   0.000000
    20  H   -0.002871   0.576859   0.000275   0.000000
    21  H   -0.000001   0.000275   0.391261  -0.000225
    22  H    0.000000   0.000000  -0.000225   0.238838
 Mulliken atomic charges:
              1
     1  C    0.801687
     2  O   -0.533941
     3  O   -0.683123
     4  C   -0.221258
     5  N   -0.379634
     6  H    0.485035
     7  H    0.481802
     8  C   -0.357933
     9  C   -0.178989
    10  C   -0.491172
    11  H    0.211014
    12  H    0.216701
    13  H    0.189679
    14  H    0.137141
    15  H    0.257787
    16  C   -0.486204
    17  H    0.185632
    18  H    0.182539
    19  H    0.204201
    20  H    0.158221
    21  H    0.307466
    22  H    0.513351
 Sum of Mulliken charges=   1.00000
 Atomic charges with hydrogens summed into heavy atoms:
              1
     1  C    0.801687
     2  O   -0.533941
     3  O   -0.169773
     4  C    0.086207
     5  N    0.587202
     6  H    0.000000
     7  H    0.000000
     8  C    0.110868
     9  C   -0.020768
    10  C    0.052349
    11  H    0.000000
    12  H    0.000000
    13  H    0.000000
    14  H    0.000000
    15  H    0.000000
    16  C    0.086167
    17  H    0.000000
    18  H    0.000000
    19  H    0.000000
    20  H    0.000000
    21  H    0.000000
    22  H    0.000000
 Sum of Mulliken charges=   1.00000
          Atomic-Atomic Spin Densities.
              1          2          3          4          5          6
     1  C    0.097141   0.002467  -0.014791   0.018382  -0.012683  -0.001016
     2  O    0.002467  -0.025678  -0.000589   0.004237   0.000691   0.000124
     3  O   -0.014791  -0.000589   0.022067  -0.001688   0.000468   0.000029
     4  C    0.018382   0.004237  -0.001688  -0.079289  -0.073134   0.003541
     5  N   -0.012683   0.000691   0.000468  -0.073134   1.215995  -0.017395
     6  H   -0.001016   0.000124   0.000029   0.003541  -0.017395  -0.026558
     7  H   -0.000844   0.000401   0.000030   0.003130  -0.018318   0.003916
     8  C   -0.006649   0.000029   0.000933   0.012544  -0.002661  -0.000132
     9  C    0.000215   0.000001  -0.000015   0.000268  -0.001558  -0.000005
    10  C    0.000013   0.000000   0.000000   0.000240   0.000700   0.000002
    11  H   -0.000059  -0.000005  -0.000001   0.000791   0.000094   0.000013
    12  H    0.000000   0.000000   0.000000   0.000004   0.000014   0.000000
    13  H   -0.000007   0.000000   0.000001  -0.000037  -0.000020   0.000000
    14  H    0.000004   0.000000  -0.000001  -0.000163  -0.000236  -0.000002
    15  H   -0.000054  -0.000009  -0.000021   0.000928  -0.000017   0.000006
    16  C   -0.000011   0.000000   0.000000  -0.000042  -0.000041  -0.000001
    17  H   -0.000002   0.000000   0.000000   0.000003  -0.000002   0.000000
    18  H    0.000000   0.000000   0.000000  -0.000002   0.000002   0.000000
    19  H    0.000000   0.000000   0.000000   0.000002   0.000003   0.000000
    20  H   -0.000036  -0.000001   0.000000  -0.000086  -0.003558   0.000018
    21  H   -0.004668   0.000007   0.000751   0.004930  -0.001983   0.000593
    22  H    0.000791   0.000301  -0.000791  -0.000041  -0.000041  -0.000003
              7          8          9         10         11         12
     1  C   -0.000844  -0.006649   0.000215   0.000013  -0.000059   0.000000
     2  O    0.000401   0.000029   0.000001   0.000000  -0.000005   0.000000
     3  O    0.000030   0.000933  -0.000015   0.000000  -0.000001   0.000000
     4  C    0.003130   0.012544   0.000268   0.000240   0.000791   0.000004
     5  N   -0.018318  -0.002661  -0.001558   0.000700   0.000094   0.000014
     6  H    0.003916  -0.000132  -0.000005   0.000002   0.000013   0.000000
     7  H   -0.027929   0.000665   0.000051  -0.000006  -0.000091   0.000000
     8  C    0.000665   0.015203  -0.002259  -0.000494  -0.000923  -0.000020
     9  C    0.000051  -0.002259   0.012282  -0.000816   0.000146  -0.000121
    10  C   -0.000006  -0.000494  -0.000816  -0.000109  -0.000014   0.000014
    11  H   -0.000091  -0.000923   0.000146  -0.000014  -0.001740   0.000000
    12  H    0.000000  -0.000020  -0.000121   0.000014   0.000000  -0.000046
    13  H    0.000000   0.000170  -0.000021   0.000243   0.000001   0.000035
    14  H    0.000000   0.000111   0.000145   0.000113   0.000001   0.000065
    15  H    0.000002  -0.000800   0.000244   0.000019   0.000171   0.000002
    16  C    0.000005   0.000493  -0.001050   0.000121   0.000005   0.000031
    17  H    0.000000  -0.000075   0.000001  -0.000049   0.000004   0.000000
    18  H    0.000000   0.000016  -0.000099   0.000005   0.000000   0.000000
    19  H    0.000000   0.000003  -0.000403   0.000057  -0.000001  -0.000001
    20  H    0.000153   0.001506   0.002087   0.000306   0.000089   0.000065
    21  H   -0.000082   0.001108  -0.000211   0.000092   0.000015  -0.000003
    22  H   -0.000003  -0.000044   0.000000   0.000000   0.000000   0.000000
             13         14         15         16         17         18
     1  C   -0.000007   0.000004  -0.000054  -0.000011  -0.000002   0.000000
     2  O    0.000000   0.000000  -0.000009   0.000000   0.000000   0.000000
     3  O    0.000001  -0.000001  -0.000021   0.000000   0.000000   0.000000
     4  C   -0.000037  -0.000163   0.000928  -0.000042   0.000003  -0.000002
     5  N   -0.000020  -0.000236  -0.000017  -0.000041  -0.000002   0.000002
     6  H    0.000000  -0.000002   0.000006  -0.000001   0.000000   0.000000
     7  H    0.000000   0.000000   0.000002   0.000005   0.000000   0.000000
     8  C    0.000170   0.000111  -0.000800   0.000493  -0.000075   0.000016
     9  C   -0.000021   0.000145   0.000244  -0.001050   0.000001  -0.000099
    10  C    0.000243   0.000113   0.000019   0.000121  -0.000049   0.000005
    11  H    0.000001   0.000001   0.000171   0.000005   0.000004   0.000000
    12  H    0.000035   0.000065   0.000002   0.000031   0.000000   0.000000
    13  H   -0.000238  -0.000146  -0.000025  -0.000058   0.000006   0.000000
    14  H   -0.000146  -0.000069  -0.000005  -0.000008  -0.000004   0.000000
    15  H   -0.000025  -0.000005  -0.003804   0.000004  -0.000005  -0.000002
    16  C   -0.000058  -0.000008   0.000004  -0.001438   0.000128   0.000106
    17  H    0.000006  -0.000004  -0.000005   0.000128   0.001169  -0.000054
    18  H    0.000000   0.000000  -0.000002   0.000106  -0.000054   0.000094
    19  H    0.000002   0.000004   0.000001   0.000386  -0.000107   0.000009
    20  H   -0.000051  -0.000131  -0.000063  -0.000426  -0.000018   0.000010
    21  H    0.000020  -0.000102   0.000069   0.000003   0.000002   0.000000
    22  H    0.000000   0.000000   0.000006   0.000000   0.000000   0.000000
             19         20         21         22
     1  C    0.000000  -0.000036  -0.004668   0.000791
     2  O    0.000000  -0.000001   0.000007   0.000301
     3  O    0.000000   0.000000   0.000751  -0.000791
     4  C    0.000002  -0.000086   0.004930  -0.000041
     5  N    0.000003  -0.003558  -0.001983  -0.000041
     6  H    0.000000   0.000018   0.000593  -0.000003
     7  H    0.000000   0.000153  -0.000082  -0.000003
     8  C    0.000003   0.001506   0.001108  -0.000044
     9  C   -0.000403   0.002087  -0.000211   0.000000
    10  C    0.000057   0.000306   0.000092   0.000000
    11  H   -0.000001   0.000089   0.000015   0.000000
    12  H   -0.000001   0.000065  -0.000003   0.000000
    13  H    0.000002  -0.000051   0.000020   0.000000
    14  H    0.000004  -0.000131  -0.000102   0.000000
    15  H    0.000001  -0.000063   0.000069   0.000006
    16  C    0.000386  -0.000426   0.000003   0.000000
    17  H   -0.000107  -0.000018   0.000002   0.000000
    18  H    0.000009   0.000010   0.000000   0.000000
    19  H    0.000420   0.000056   0.000000   0.000000
    20  H    0.000056  -0.004411   0.000041   0.000000
    21  H    0.000000   0.000041   0.007424  -0.000037
    22  H    0.000000   0.000000  -0.000037   0.002343
 Mulliken atomic spin densities:
              1
     1  C    0.078195
     2  O   -0.018024
     3  O    0.006382
     4  C   -0.105482
     5  N    1.086318
     6  H   -0.036868
     7  H   -0.038921
     8  C    0.018724
     9  C    0.008884
    10  C    0.000438
    11  H   -0.001504
    12  H    0.000038
    13  H   -0.000124
    14  H   -0.000424
    15  H   -0.003352
    16  C   -0.001791
    17  H    0.000998
    18  H    0.000084
    19  H    0.000430
    20  H   -0.004448
    21  H    0.007967
    22  H    0.002481
 Sum of Mulliken spin densities=   1.00000
 Electronic spatial extent (au):  <R**2>=  1543.5014
 Charge=     1.0000 electrons
 Dipole moment (field-independent basis, Debye):
    X=     1.6716    Y=     4.3159    Z=     0.3373  Tot=     4.6406
 Quadrupole moment (field-independent basis, Debye-Ang):
   XX=   -43.7231   YY=   -37.6099   ZZ=   -52.3182
   XY=     0.7572   XZ=     3.8625   YZ=    -0.1346
 Traceless Quadrupole moment (field-independent basis, Debye-Ang):
   XX=     0.8273   YY=     6.9405   ZZ=    -7.7678
   XY=     0.7572   XZ=     3.8625   YZ=    -0.1346
 Octapole moment (field-independent basis, Debye-Ang**2):
  XXX=    15.1601  YYY=    24.1191  ZZZ=    -3.5501  XYY=    32.3230
  XXY=   -18.3721  XXZ=    14.9081  XZZ=     4.4547  YZZ=     5.5394
  YYZ=    -2.2813  XYZ=     0.5465
 Hexadecapole moment (field-independent basis, Debye-Ang**3):
 XXXX= -1253.7396 YYYY=  -238.7510 ZZZZ=  -242.8800 XXXY=   -90.3026
 XXXZ=    47.7127 YYYX=     7.3711 YYYZ=   -11.3591 ZZZX=     0.6462
 ZZZY=    -8.2533 XXYY=  -219.4157 XXZZ=  -277.1844 YYZZ=   -87.3813
 XXYZ=    -1.0343 YYXZ=     1.0615 ZZXY=     4.9206
 N-N= 4.820031305720D+02 E-N=-1.977979500096D+03  KE= 4.376729481582D+02
                          Isotropic Fermi Contact Couplings
        Atom                 a.u.       MegaHertz       Gauss      10(-4) cm-1
     1  C(13)              0.06461      72.63409      25.91765      24.22812
     2  O(17)             -0.00732       4.43615       1.58293       1.47974
     3  O(17)              0.01741     -10.55111      -3.76490      -3.51947
     4  C(13)             -0.03055     -34.34248     -12.25425     -11.45542
     5  N(14)              0.53438     172.66130      61.60984      57.59361
     6  H(1)              -0.01352     -60.44672     -21.56889     -20.16286
     7  H(1)              -0.01526     -68.22682     -24.34502     -22.75802
     8  C(13)              0.00513       5.77068       2.05912       1.92489
     9  C(13)              0.00028       0.31236       0.11146       0.10419
    10  C(13)             -0.00039      -0.43800      -0.15629      -0.14610
    11  H(1)              -0.00065      -2.88688      -1.03011      -0.96296
    12  H(1)               0.00003       0.12163       0.04340       0.04057
    13  H(1)              -0.00004      -0.16751      -0.05977      -0.05587
    14  H(1)               0.00000       0.02069       0.00738       0.00690
    15  H(1)              -0.00146      -6.50918      -2.32264      -2.17123
    16  C(13)             -0.00056      -0.62670      -0.22362      -0.20904
    17  H(1)               0.00052       2.32797       0.83068       0.77653
    18  H(1)               0.00003       0.12597       0.04495       0.04202
    19  H(1)               0.00022       0.98671       0.35208       0.32913
    20  H(1)               0.00137       6.11027       2.18030       2.03817
    21  H(1)               0.00366      16.38159       5.84536       5.46431
    22  H(1)               0.00135       6.03852       2.15469       2.01423
 --------------------------------------------------------
       Center         ----  Spin Dipole Couplings  ----
                      3XX-RR        3YY-RR        3ZZ-RR
 --------------------------------------------------------
     1   Atom        0.048264     -0.010158     -0.038106
     2   Atom        0.026785      0.001820     -0.028605
     3   Atom       -0.007419      0.020084     -0.012665
     4   Atom       -0.006717      0.027036     -0.020319
     5   Atom        1.443165     -0.533713     -0.909453
     6   Atom        0.038407     -0.004130     -0.034277
     7   Atom       -0.038202     -0.084568      0.122770
     8   Atom       -0.001017      0.011872     -0.010855
     9   Atom       -0.001218      0.010138     -0.008920
    10   Atom        0.002715     -0.001431     -0.001283
    11   Atom       -0.004788      0.005985     -0.001196
    12   Atom        0.002734     -0.001514     -0.001220
    13   Atom        0.000262      0.000309     -0.000571
    14   Atom        0.002296     -0.004321      0.002025
    15   Atom       -0.002612      0.007062     -0.004450
    16   Atom        0.001000      0.001026     -0.002026
    17   Atom        0.000367      0.000902     -0.001269
    18   Atom        0.000457      0.000259     -0.000717
    19   Atom        0.001761     -0.000512     -0.001248
    20   Atom        0.012990     -0.003810     -0.009180
    21   Atom       -0.010219      0.005535      0.004684
    22   Atom        0.001742      0.000977     -0.002720
 --------------------------------------------------------
                        XY            XZ            YZ
 --------------------------------------------------------
     1   Atom       -0.052173     -0.013787      0.022743
     2   Atom       -0.010111     -0.029322     -0.036027
     3   Atom       -0.021170      0.011478     -0.007690
     4   Atom       -0.041528      0.015519     -0.005210
     5   Atom       -1.024699     -0.367518      0.154080
     6   Atom        0.061431      0.061222      0.072350
     7   Atom       -0.018623     -0.040926     -0.009632
     8   Atom        0.017149      0.010296      0.008444
     9   Atom        0.005417      0.002221     -0.006048
    10   Atom        0.004196     -0.003178     -0.001778
    11   Atom        0.003250      0.001920      0.007503
    12   Atom        0.001614     -0.002121     -0.000640
    13   Atom        0.002482     -0.001971     -0.001984
    14   Atom        0.003899     -0.008466     -0.003915
    15   Atom        0.002842      0.000050     -0.000868
    16   Atom        0.002452      0.000617      0.000538
    17   Atom        0.001891      0.000181      0.000131
    18   Atom        0.001958      0.001443      0.001346
    19   Atom        0.001619      0.000582      0.000286
    20   Atom        0.009945      0.006310      0.000879
    21   Atom       -0.002091      0.001403     -0.019173
    22   Atom       -0.003709     -0.000710     -0.000484
 --------------------------------------------------------


 ---------------------------------------------------------------------------------
              Anisotropic Spin Dipole Couplings in Principal Axis System
 ---------------------------------------------------------------------------------

       Atom             a.u.   MegaHertz   Gauss  10(-4) cm-1        Axes

              Baa    -0.0542    -7.267    -2.593    -2.424 -0.2347 -0.6513  0.7216
     1 C(13)  Bbb    -0.0292    -3.925    -1.401    -1.309  0.4946  0.5590  0.6655
              Bcc     0.0834    11.192     3.993     3.733  0.8368 -0.5131 -0.1910
 
              Baa    -0.0627     4.534     1.618     1.512  0.3203  0.4999  0.8047
     2 O(17)  Bbb     0.0221    -1.599    -0.571    -0.533 -0.4150  0.8376 -0.3551
              Bcc     0.0406    -2.934    -1.047    -0.979  0.8515  0.2202 -0.4758
 
              Baa    -0.0238     1.722     0.614     0.574  0.7563  0.2597 -0.6004
     3 O(17)  Bbb    -0.0110     0.795     0.284     0.265  0.4357  0.4846  0.7585
              Bcc     0.0348    -2.517    -0.898    -0.840 -0.4879  0.8353 -0.2534
 
              Baa    -0.0402    -5.389    -1.923    -1.798  0.7616  0.4333 -0.4819
     4 C(13)  Bbb    -0.0170    -2.285    -0.815    -0.762  0.3166  0.4000  0.8601
              Bcc     0.0572     7.675     2.739     2.560 -0.5654  0.8076 -0.1675
 
              Baa    -0.9698   -37.402   -13.346   -12.476  0.4100  0.8292  0.3798
     5 N(14)  Bbb    -0.9645   -37.200   -13.274   -12.408 -0.0320 -0.4031  0.9146
              Bcc     1.9343    74.602    26.620    24.884  0.9115 -0.3871 -0.1388
 
              Baa    -0.0940   -50.173   -17.903   -16.736 -0.1054 -0.5788  0.8087
     6 H(1)   Bbb    -0.0393   -20.991    -7.490    -7.002  0.7316 -0.5959 -0.3312
              Bcc     0.1334    71.164    25.393    23.738  0.6735  0.5567  0.4862
 
              Baa    -0.0937   -50.015   -17.847   -16.683  0.3906  0.9134  0.1145
     7 H(1)   Bbb    -0.0390   -20.785    -7.417    -6.933  0.8912 -0.4064  0.2013
              Bcc     0.1327    70.800    25.263    23.616 -0.2304 -0.0234  0.9728
 
              Baa    -0.0176    -2.367    -0.844    -0.789 -0.6231  0.1420  0.7692
     8 C(13)  Bbb    -0.0104    -1.391    -0.496    -0.464 -0.5428  0.6296 -0.5559
              Bcc     0.0280     3.758     1.341     1.253  0.5632  0.7638  0.3152
 
              Baa    -0.0120    -1.612    -0.575    -0.538 -0.3441  0.3246  0.8810
     9 C(13)  Bbb    -0.0014    -0.184    -0.066    -0.061  0.8864 -0.1971  0.4188
              Bcc     0.0134     1.797     0.641     0.599  0.3096  0.9251 -0.2200
 
              Baa    -0.0041    -0.545    -0.194    -0.182 -0.5632  0.8174 -0.1212
    10 C(13)  Bbb    -0.0029    -0.386    -0.138    -0.129  0.2732  0.3226  0.9063
              Bcc     0.0069     0.930     0.332     0.310  0.7799  0.4773 -0.4050
 
              Baa    -0.0060    -3.180    -1.135    -1.061  0.3209 -0.5649  0.7602
    11 H(1)   Bbb    -0.0056    -2.999    -1.070    -1.000  0.9201 -0.0045 -0.3917
              Bcc     0.0116     6.179     2.205     2.061  0.2246  0.8252  0.5183
 
              Baa    -0.0022    -1.156    -0.412    -0.386  0.4706 -0.3862  0.7933
    12 H(1)   Bbb    -0.0020    -1.077    -0.384    -0.359 -0.0847  0.8752  0.4763
              Bcc     0.0042     2.233     0.797     0.745  0.8783  0.2913 -0.3792
 
              Baa    -0.0022    -1.172    -0.418    -0.391  0.7364 -0.6728  0.0715
    13 H(1)   Bbb    -0.0022    -1.152    -0.411    -0.384  0.2880  0.4073  0.8667
              Bcc     0.0044     2.324     0.829     0.775  0.6122  0.6176 -0.4937
 
              Baa    -0.0063    -3.373    -1.204    -1.125  0.6122  0.2647  0.7451
    14 H(1)   Bbb    -0.0061    -3.268    -1.166    -1.090 -0.4097  0.9121  0.0126
              Bcc     0.0124     6.642     2.370     2.215  0.6763  0.3129 -0.6669
 
              Baa    -0.0046    -2.438    -0.870    -0.813 -0.2014  0.1217  0.9719
    15 H(1)   Bbb    -0.0033    -1.772    -0.632    -0.591  0.9443 -0.2396  0.2257
              Bcc     0.0079     4.210     1.502     1.404  0.2603  0.9632 -0.0667
 
              Baa    -0.0021    -0.288    -0.103    -0.096 -0.1581 -0.0451  0.9864
    16 C(13)  Bbb    -0.0014    -0.192    -0.069    -0.064 -0.6973  0.7124 -0.0792
              Bcc     0.0036     0.481     0.172     0.160  0.6991  0.7004  0.1441
 
              Baa    -0.0013    -0.709    -0.253    -0.237 -0.5462  0.4206  0.7244
    17 H(1)   Bbb    -0.0012    -0.655    -0.234    -0.218  0.5218 -0.5057  0.6870
              Bcc     0.0026     1.364     0.487     0.455  0.6553  0.7532  0.0568
 
              Baa    -0.0017    -0.902    -0.322    -0.301 -0.4427 -0.1639  0.8815
    18 H(1)   Bbb    -0.0016    -0.853    -0.304    -0.285 -0.6162  0.7698 -0.1664
              Bcc     0.0033     1.756     0.626     0.586  0.6513  0.6169  0.4418
 
              Baa    -0.0014    -0.730    -0.261    -0.244 -0.4241  0.5656  0.7073
    19 H(1)   Bbb    -0.0013    -0.715    -0.255    -0.238  0.2302 -0.6880  0.6882
              Bcc     0.0027     1.445     0.516     0.482  0.8759  0.4547  0.1616
 
              Baa    -0.0116    -6.167    -2.200    -2.057 -0.3721  0.3816  0.8461
    20 H(1)   Bbb    -0.0074    -3.936    -1.404    -1.313 -0.2559  0.8341 -0.4887
              Bcc     0.0189    10.103     3.605     3.370  0.8922  0.3983  0.2127
 
              Baa    -0.0141    -7.536    -2.689    -2.514  0.1217  0.6996  0.7041
    21 H(1)   Bbb    -0.0103    -5.517    -1.968    -1.840  0.9900 -0.0347 -0.1367
              Bcc     0.0245    13.053     4.658     4.354 -0.0712  0.7137 -0.6968
 
              Baa    -0.0034    -1.814    -0.647    -0.605  0.4351  0.4545  0.7773
    22 H(1)   Bbb    -0.0017    -0.903    -0.322    -0.301 -0.5068 -0.5899  0.6286
              Bcc     0.0051     2.718     0.970     0.907  0.7442 -0.6674 -0.0263
 

 ---------------------------------------------------------------------------------

 ***** Axes restored to original set *****
 -------------------------------------------------------------------
 Center     Atomic                   Forces (Hartrees/Bohr)
 Number     Number              X              Y              Z
 -------------------------------------------------------------------
    1          6           0.038692944    0.051744257   -0.036901163
    2          8          -0.008741855   -0.062045233    0.029183197
    3          8          -0.030087054    0.041078197    0.004071801
    4          6           0.008997429   -0.062486037    0.011178171
    5          7           0.065185352    0.060025895   -0.049293564
    6          1          -0.021084682   -0.009260581    0.024252095
    7          1          -0.027850259   -0.008717870    0.011138232
    8          6          -0.003898962   -0.003564981   -0.018519999
    9          6          -0.003236972    0.000276066    0.004684270
   10          6           0.001123174   -0.006452610    0.005536018
   11          1           0.004116459   -0.004101529    0.005034222
   12          1           0.006431658    0.004887584   -0.002349254
   13          1          -0.004936115    0.004409258    0.003266751
   14          1          -0.001064665   -0.005820146   -0.000179628
   15          1          -0.003952690    0.008734865    0.005090262
   16          6          -0.005308661   -0.003407445   -0.006915329
   17          1          -0.004548975    0.004697224    0.002405285
   18          1           0.001735977   -0.004087104    0.005129298
   19          1           0.006093061    0.003954603   -0.003321988
   20          1          -0.001168797   -0.002922530   -0.001748474
   21          1          -0.005421355    0.008293051   -0.004566359
   22          1          -0.011075014   -0.015234935    0.012826157
 -------------------------------------------------------------------
 Cartesian Forces:  Max     0.065185352 RMS     0.021714863

 GradGradGradGradGradGradGradGradGradGradGradGradGradGradGradGradGradGrad
 Berny optimization.
 Internal  Forces:  Max     0.067502708 RMS     0.011905382
 Search for a local minimum.
 Step number   1 out of a maximum of 118
 All quantities printed in internal units (Hartrees-Bohrs-Radians)
 Second derivative matrix not updated -- first step.
     Eigenvalues ---    0.00320   0.00384   0.00414   0.00441   0.00546
     Eigenvalues ---    0.00953   0.00963   0.02237   0.03387   0.03653
     Eigenvalues ---    0.04587   0.04757   0.04799   0.04873   0.04913
     Eigenvalues ---    0.05352   0.05518   0.05523   0.05591   0.05648
     Eigenvalues ---    0.06290   0.08583   0.12385   0.16000   0.16000
     Eigenvalues ---    0.16000   0.16000   0.16000   0.16000   0.16000
     Eigenvalues ---    0.16000   0.16000   0.16499   0.16901   0.16997
     Eigenvalues ---    0.18764   0.21951   0.24994   0.25000   0.29082
     Eigenvalues ---    0.29526   0.29736   0.29933   0.30697   0.33694
     Eigenvalues ---    0.34018   0.34092   0.34176   0.34221   0.34224
     Eigenvalues ---    0.34274   0.34306   0.34322   0.34512   0.37582
     Eigenvalues ---    0.44164   0.44305   0.51386   0.53195   0.95716
     Eigenvalues --- 1000.000001000.000001000.000001000.000001000.00000
     Eigenvalues --- 1000.000001000.000001000.000001000.000001000.00000
     Eigenvalues --- 1000.000001000.000001000.000001000.000001000.00000
     Eigenvalues --- 1000.000001000.000001000.000001000.000001000.00000
     Eigenvalues --- 1000.000001000.000001000.000001000.000001000.00000
     Eigenvalues --- 1000.000001000.000001000.000001000.000001000.00000
     Eigenvalues --- 1000.000001000.000001000.000001000.000001000.00000
     Eigenvalues --- 1000.000001000.000001000.000001000.000001000.00000
     Eigenvalues --- 1000.000001000.000001000.000001000.000001000.00000
     Eigenvalues --- 1000.000001000.000001000.00000
 RFO step:  Lambda=-5.50287673D-02.
 Linear search not attempted -- first point.
 Maximum step size (   0.300) exceeded in Quadratic search.
    -- Step size scaled by   0.517
 Iteration  1 RMS(Cart)=  0.02956575 RMS(Int)=  0.00253128
 Iteration  2 RMS(Cart)=  0.00205199 RMS(Int)=  0.00199100
 Iteration  3 RMS(Cart)=  0.00000938 RMS(Int)=  0.00199099
 Iteration  4 RMS(Cart)=  0.00000014 RMS(Int)=  0.00199099
 Variable       Old X    -DE/DX   Delta X   Delta X   Delta X     New X
                                 (Linear)    (Quad)   (Total)
    R1        2.30405  -0.06750   0.00000  -0.03446  -0.03446   2.26959
    R2        2.56772  -0.05092   0.00000  -0.04483  -0.04483   2.52290
    R3        2.86595  -0.00575   0.00000  -0.00821  -0.00821   2.85774
    R4        1.85192  -0.02242   0.00000  -0.02037  -0.02037   1.83155
    R5        2.74977   0.01044   0.00000   0.01252   0.01252   2.76229
    R6        2.89832   0.00766   0.00000   0.01144   0.01144   2.90976
    R7        2.06959  -0.01012   0.00000  -0.01317  -0.01317   2.05642
    R8        1.92791  -0.00268   0.00000  -0.00278  -0.00278   1.92513
    R9        1.92959  -0.00187   0.00000  -0.00195  -0.00195   1.92764
   R10        2.88918   0.00886   0.00000   0.01307   0.01307   2.90225
   R11        2.07849  -0.00756   0.00000  -0.00996  -0.00996   2.06853
   R12        2.07300  -0.01029   0.00000  -0.01345  -0.01345   2.05955
   R13        2.88098   0.00701   0.00000   0.01022   0.01022   2.89120
   R14        2.88494   0.00193   0.00000   0.00284   0.00284   2.88777
   R15        2.06954  -0.00179   0.00000  -0.00232  -0.00232   2.06722
   R16        2.06817  -0.00831   0.00000  -0.01079  -0.01079   2.05738
   R17        2.07175  -0.00724   0.00000  -0.00945  -0.00945   2.06229
   R18        2.06475  -0.00414   0.00000  -0.00535  -0.00535   2.05940
   R19        2.07034  -0.00696   0.00000  -0.00906  -0.00906   2.06128
   R20        2.06870  -0.00670   0.00000  -0.00871  -0.00871   2.05999
   R21        2.06790  -0.00798   0.00000  -0.01035  -0.01035   2.05754
    A1        2.14410   0.02021   0.00000   0.03428   0.03427   2.17837
    A2        2.18668  -0.01392   0.00000  -0.02357  -0.02357   2.16311
    A3        1.95208  -0.00629   0.00000  -0.01062  -0.01062   1.94145
    A4        1.84545   0.00750   0.00000   0.01803   0.01803   1.86348
    A5        1.97074  -0.02679   0.00000  -0.07176  -0.07167   1.89908
    A6        1.89342   0.01378   0.00000   0.02686   0.02666   1.92008
    A7        1.87315   0.00476   0.00000   0.01561   0.01505   1.88820
    A8        1.92687   0.00788   0.00000   0.01353   0.01371   1.94058
    A9        1.89539   0.00447   0.00000   0.00905   0.00882   1.90421
   A10        1.90261  -0.00380   0.00000   0.00874   0.00824   1.91085
   A11        1.90507   0.03762   0.00000   0.11311   0.10453   2.00960
   A12        1.88389   0.03405   0.00000   0.10525   0.09647   1.98036
   A13        1.83009  -0.00290   0.00000   0.04592   0.03161   1.86169
   A14        1.99408   0.00280   0.00000   0.00553   0.00553   1.99961
   A15        1.88808  -0.00078   0.00000  -0.00125  -0.00127   1.88680
   A16        1.89575  -0.00332   0.00000  -0.01040  -0.01041   1.88534
   A17        1.90423  -0.00021   0.00000   0.00222   0.00222   1.90645
   A18        1.91462   0.00103   0.00000   0.00396   0.00398   1.91859
   A19        1.86245   0.00030   0.00000  -0.00053  -0.00055   1.86190
   A20        1.95258   0.00248   0.00000   0.00767   0.00767   1.96025
   A21        1.91137  -0.00222   0.00000  -0.00516  -0.00517   1.90621
   A22        1.88062   0.00070   0.00000   0.00300   0.00296   1.88358
   A23        1.93491   0.00034   0.00000   0.00073   0.00075   1.93566
   A24        1.88408  -0.00036   0.00000   0.00076   0.00074   1.88482
   A25        1.89855  -0.00098   0.00000  -0.00727  -0.00726   1.89129
   A26        1.92954  -0.00013   0.00000  -0.00084  -0.00084   1.92869
   A27        1.93387   0.00092   0.00000   0.00245   0.00244   1.93631
   A28        1.94497   0.00551   0.00000   0.01352   0.01350   1.95847
   A29        1.88079  -0.00071   0.00000  -0.00224  -0.00224   1.87855
   A30        1.87682  -0.00305   0.00000  -0.00780  -0.00780   1.86902
   A31        1.89565  -0.00289   0.00000  -0.00597  -0.00600   1.88965
   A32        1.93159   0.00011   0.00000   0.00039   0.00039   1.93197
   A33        1.94372   0.00156   0.00000   0.00401   0.00401   1.94773
   A34        1.93667  -0.00090   0.00000  -0.00255  -0.00255   1.93413
   A35        1.88355  -0.00046   0.00000  -0.00036  -0.00036   1.88319
   A36        1.88218   0.00012   0.00000  -0.00023  -0.00023   1.88195
   A37        1.88384  -0.00048   0.00000  -0.00137  -0.00137   1.88247
    D1       -0.01279  -0.00011   0.00000  -0.00220  -0.00225  -0.01504
    D2        3.10266  -0.00011   0.00000   0.00074   0.00079   3.10345
    D3       -0.27568  -0.00250   0.00000   0.00139   0.00149  -0.27420
    D4        1.86599  -0.00049   0.00000  -0.01008  -0.01033   1.85566
    D5       -2.36380   0.00486   0.00000   0.02282   0.02293  -2.34087
    D6        2.89282  -0.00312   0.00000  -0.00268  -0.00256   2.89026
    D7       -1.24869  -0.00111   0.00000  -0.01416  -0.01438  -1.26307
    D8        0.80470   0.00424   0.00000   0.01875   0.01889   0.82358
    D9       -1.04596  -0.01280   0.00000  -0.08098  -0.08446  -1.13042
   D10        0.93387   0.02041   0.00000   0.08439   0.08783   1.02170
   D11        3.11432  -0.01761   0.00000  -0.07542  -0.07892   3.03539
   D12       -1.18903   0.01560   0.00000   0.08996   0.09336  -1.09567
   D13        1.02929  -0.02042   0.00000  -0.09977  -0.10316   0.92614
   D14        3.00913   0.01279   0.00000   0.06561   0.06913   3.07826
   D15       -3.10412   0.00993   0.00000   0.03158   0.03166  -3.07246
   D16       -0.97971   0.01096   0.00000   0.03719   0.03727  -0.94244
   D17        1.03556   0.00916   0.00000   0.03046   0.03056   1.06612
   D18       -0.93608  -0.00913   0.00000  -0.03127  -0.03134  -0.96742
   D19        1.18833  -0.00811   0.00000  -0.02566  -0.02573   1.16259
   D20       -3.07959  -0.00990   0.00000  -0.03239  -0.03244  -3.11203
   D21        1.14456  -0.00126   0.00000  -0.00661  -0.00664   1.13792
   D22       -3.01421  -0.00024   0.00000  -0.00100  -0.00103  -3.01524
   D23       -0.99894  -0.00203   0.00000  -0.00773  -0.00774  -1.00669
   D24       -0.99322   0.00012   0.00000  -0.00129  -0.00130  -0.99452
   D25        3.13750  -0.00044   0.00000  -0.00382  -0.00382   3.13368
   D26        1.07507   0.00156   0.00000   0.00600   0.00601   1.08109
   D27       -3.10873  -0.00063   0.00000  -0.00506  -0.00507  -3.11380
   D28        1.02199  -0.00119   0.00000  -0.00760  -0.00760   1.01439
   D29       -1.04043   0.00081   0.00000   0.00223   0.00224  -1.03820
   D30        1.14000  -0.00146   0.00000  -0.00794  -0.00795   1.13205
   D31       -1.01246  -0.00202   0.00000  -0.01048  -0.01048  -1.02294
   D32       -3.07489  -0.00001   0.00000  -0.00066  -0.00064  -3.07553
   D33       -3.06104   0.00100   0.00000   0.00319   0.00319  -3.05785
   D34       -0.97704   0.00062   0.00000   0.00143   0.00141  -0.97562
   D35        1.13593   0.00132   0.00000   0.00472   0.00473   1.14066
   D36       -0.92193   0.00014   0.00000   0.00251   0.00251  -0.91942
   D37        1.16207  -0.00024   0.00000   0.00074   0.00073   1.16280
   D38       -3.00815   0.00047   0.00000   0.00404   0.00405  -3.00410
   D39        1.15591  -0.00108   0.00000  -0.00545  -0.00545   1.15046
   D40       -3.04327  -0.00146   0.00000  -0.00722  -0.00723  -3.05050
   D41       -0.93031  -0.00076   0.00000  -0.00392  -0.00391  -0.93422
   D42        1.10898   0.00127   0.00000   0.00501   0.00500   1.11399
   D43       -0.98627   0.00074   0.00000   0.00254   0.00253  -0.98374
   D44       -3.08531   0.00090   0.00000   0.00331   0.00330  -3.08200
   D45       -1.05387  -0.00057   0.00000  -0.00163  -0.00163  -1.05550
   D46        3.13406  -0.00110   0.00000  -0.00410  -0.00410   3.12996
   D47        1.03502  -0.00094   0.00000  -0.00333  -0.00333   1.03169
   D48       -3.12298   0.00028   0.00000   0.00150   0.00151  -3.12147
   D49        1.06495  -0.00025   0.00000  -0.00097  -0.00096   1.06399
   D50       -1.03408  -0.00009   0.00000  -0.00020  -0.00019  -1.03428
         Item               Value     Threshold  Converged?
 Maximum Force            0.067503     0.000450     NO 
 RMS     Force            0.011905     0.000300     NO 
 Maximum Displacement     0.119580     0.001800     NO 
 RMS     Displacement     0.029455     0.001200     NO 
 Predicted change in Energy=-2.369582D-02
 GradGradGradGradGradGradGradGradGradGradGradGradGradGradGradGradGradGrad

                          Input orientation:                          
 ---------------------------------------------------------------------
 Center     Atomic     Atomic              Coordinates (Angstroms)
 Number     Number      Type              X           Y           Z
 ---------------------------------------------------------------------
    1          6             0        1.469699    1.262579   -0.471409
    2          8             0        1.361598    2.409805   -0.809968
    3          8             0        2.475916    0.456923   -0.819013
    4          6             0        0.456242    0.535600    0.383756
    5          7             0       -0.422050    1.520037    1.013178
    6          1             0        0.033815    2.146477    1.674677
    7          1             0       -0.915970    2.110456    0.343870
    8          6             0       -0.346656   -0.455670   -0.478599
    9          6             0       -1.473861   -1.184126    0.268033
   10          6             0       -0.961744   -1.948155    1.490640
   11          1             0       -0.771272    0.095174   -1.323857
   12          1             0       -1.767293   -2.520422    1.947702
   13          1             0       -0.175021   -2.650603    1.210261
   14          1             0       -0.567334   -1.281743    2.257432
   15          1             0        0.351191   -1.180923   -0.896725
   16          6             0       -2.193430   -2.122866   -0.699547
   17          1             0       -1.518082   -2.902650   -1.054015
   18          1             0       -2.573416   -1.587676   -1.569894
   19          1             0       -3.036966   -2.608808   -0.211895
   20          1             0       -2.188868   -0.432227    0.614561
   21          1             0        0.993290   -0.008999    1.157833
   22          1             0        3.064096    0.974354   -1.389704
 ---------------------------------------------------------------------
                    Distance matrix (angstroms):
                    1          2          3          4          5
     1  C    0.000000
     2  O    1.201014   0.000000
     3  O    1.335059   2.248452   0.000000
     4  C    1.512251   2.399436   2.352004   0.000000
     5  N    2.418471   2.701287   3.589616   1.461741   0.000000
     6  H    2.729236   2.829454   3.877749   2.107095   1.018735
     7  H    2.659886   2.570655   3.948590   2.089194   1.020061
     8  C    2.500316   3.352445   2.985903   1.539778   2.476793
     9  C    3.898422   4.703005   4.413100   2.587692   2.995671
    10  C    4.479997   5.448168   4.789197   3.066744   3.542259
    11  H    2.666731   3.189159   3.306049   2.148653   2.759334
    12  H    5.535460   6.457697   5.875723   4.090148   4.359854
    13  H    4.565755   5.661294   4.560936   3.351640   4.182595
    14  H    4.250842   5.172741   4.663566   2.803766   3.069079
    15  H    2.720782   3.731190   2.683846   2.144088   3.397178
    16  C    4.993176   5.761556   5.335951   3.906629   4.397950
    17  H    5.159012   6.047669   5.224364   4.217429   5.003473
    18  H    5.067288   5.660537   5.499087   4.183763   4.578047
    19  H    5.946850   6.700115   6.337126   4.737574   5.038447
    20  H    4.175741   4.765735   4.960436   2.826051   2.663057
    21  H    2.120922   3.139826   2.514594   1.088211   2.088556
    22  H    1.862375   2.301112   0.969216   3.184112   4.269055
                    6          7          8          9         10
     6  H    0.000000
     7  H    1.635371   0.000000
     8  C    3.398900   2.754193   0.000000
     9  C    3.917225   3.342345   1.535806   0.000000
    10  C    4.217940   4.217761   2.546321   1.529959   0.000000
    11  H    3.721185   2.619850   1.094618   2.159711   3.483227
    12  H    5.009838   4.974140   3.488316   2.166351   1.088716
    13  H    4.824030   4.895643   2.774786   2.173783   1.091319
    14  H    3.528976   3.910279   2.866524   2.188385   1.089787
    15  H    4.217158   3.738710   1.089868   2.165060   2.830540
    16  C    5.368878   4.543308   2.497787   1.528144   2.518828
    17  H    5.945404   5.239070   2.773275   2.168661   2.774138
    18  H    5.591850   4.481718   2.725953   2.179415   3.477686
    19  H    5.966706   5.203744   3.456140   2.168720   2.764351
    20  H    3.565652   2.856358   2.142263   1.093923   2.138081
    21  H    2.415325   2.966463   2.161684   2.873935   2.773670
    22  H    4.466197   4.487420   3.808978   5.291520   5.748464
                   11         12         13         14         15
    11  H    0.000000
    12  H    4.305404   0.000000
    13  H    3.783723   1.759572   0.000000
    14  H    3.842281   1.752187   1.767556   0.000000
    15  H    1.752367   3.791174   2.622260   3.286725   0.000000
    16  C    2.707767   2.710641   2.828400   3.477845   2.720521
    17  H    3.101208   3.036200   2.644671   3.807486   2.546227
    18  H    2.477951   3.727376   3.822483   4.332019   3.028520
    19  H    3.698831   2.506739   3.196092   3.736009   3.739981
    20  H    2.458697   2.513076   3.054771   2.459690   3.049004
    21  H    3.046854   3.814703   2.888905   2.294459   2.450898
    22  H    3.935396   6.833305   5.512895   5.619507   3.499728
                   16         17         18         19         20
    16  C    0.000000
    17  H    1.090782   0.000000
    18  H    1.090102   1.763241   0.000000
    19  H    1.088805   1.761396   1.761179   0.000000
    20  H    2.141299   3.055665   2.500956   2.477863   0.000000
    21  H    4.251292   4.424079   4.759633   4.987798   3.255825
    22  H    6.140902   6.011673   6.194999   7.172813   5.795617
                   21         22
    21  H    0.000000
    22  H    3.427122   0.000000
 Stoichiometry    C6H13NO2(1+,2)
 Framework group  C1[X(C6H13NO2)]
 Deg. of freedom    60
 Full point group                 C1      NOp   1
 Largest Abelian subgroup         C1      NOp   1
 Largest concise Abelian subgroup C1      NOp   1
                         Standard orientation:                         
 ---------------------------------------------------------------------
 Center     Atomic     Atomic              Coordinates (Angstroms)
 Number     Number      Type              X           Y           Z
 ---------------------------------------------------------------------
    1          6             0        1.972850   -0.237861    0.025595
    2          8             0        2.771351    0.228791   -0.740608
    3          8             0        2.142204   -1.375090    0.704133
[...]
 00025187,0.00008288,0.00011833,0.00000330,0.00007757,-0.00000660,0.002
 52096,-0.00144792,0.00249216,-0.01487781,-0.00919476,0.00805117,-0.108
 60937,-0.13011616,0.06546319,-0.00090174,-0.00028114,0.00066885,0.1197
 6318,0.13589841,0.00013157,-0.00011683,0.00010705,-0.00004997,0.000008
 68,-0.00000140,0.00004392,0.00003885,0.00002486,-0.00047571,-0.0003089
 1,0.00003048,0.00005842,0.00001460,0.00007772,-0.00007646,0.00011614,-
 0.00010977,-0.00005168,-0.00000721,-0.00006405,-0.00430729,0.00305954,
 -0.00491427,0.02390402,0.01344917,-0.01344335,0.09745391,0.06440714,-0
 .11584979,0.00146137,0.00123053,-0.00088976,-0.10484373,-0.07272575,0.
 12381392,-0.00012442,-0.00003982,0.00010502,0.00004958,0.00007083,-0.0
 0004462,0.00007698,0.00000141,-0.00004963,0.00014485,0.00015370,-0.000
 22443,0.00001279,-0.00002232,0.00002303,-0.00011586,0.00002755,-0.0001
 2408,-0.00001578,-0.00002449,-0.00000887,0.00072957,-0.00089125,0.0001
 9642,-0.00884559,0.00755023,0.00461917,-0.19679755,0.13147712,0.055411
 84,0.00014800,-0.00013985,-0.00012844,-0.01812712,0.01974769,0.0074635
 7,0.20808975,0.00014284,-0.00035612,-0.00005749,-0.00007450,0.00018098
 ,0.00003725,-0.00011925,0.00015676,0.00001626,-0.00000511,-0.00023876,
 0.00002476,0.00003212,0.00022032,-0.00006616,0.00008310,0.00040375,-0.
 00010492,-0.00000973,0.00008629,0.00001712,0.00032722,0.00022549,-0.00
 123808,0.01336538,-0.01333843,-0.00576726,0.13189236,-0.18538865,-0.05
 406412,-0.00018722,0.00044038,0.00004074,-0.01325658,0.01550597,0.0051
 6503,-0.14703527,0.19758317,0.00016289,0.00003635,0.00001205,-0.000050
 20,-0.00003611,0.00002315,-0.00008171,0.00000758,-0.00000132,0.0000236
 0,0.00002834,-0.00002528,-0.00006439,-0.00010274,-0.00001183,-0.000092
 52,0.00016292,-0.00029154,-0.00002152,0.00002679,-0.00002616,-0.000419
 25,-0.00025715,0.00186306,-0.02258277,0.02167951,0.01007580,0.05667563
 ,-0.05510269,-0.08268745,-0.00012134,-0.00046709,0.00016551,0.01017506
 ,-0.01171098,-0.00457306,-0.06062845,0.05796360,0.08627484,0.00034325,
 -0.00005834,0.00012667,-0.00013216,0.00002226,0.00002725,-0.00010438,0
 .00006980,0.00004591,-0.00024704,-0.00048248,0.00027895,0.00004342,0.0
 0003934,0.00004976,0.00004022,0.00056981,-0.00044121,-0.00005193,0.000
 10340,-0.00003495,-0.00035724,0.00011041,0.00012684,-0.00611336,-0.009
 40290,-0.00672973,-0.10351997,-0.06674609,-0.07635603,0.00009007,0.000
 06433,-0.00007337,-0.01051213,-0.01763559,-0.02101234,0.01364826,0.015
 51142,0.01853515,0.10712515,0.00050257,0.00005352,0.00002726,-0.000136
 50,-0.00014848,0.00004303,-0.00006123,0.00004936,0.00009039,-0.0013871
 2,-0.00087626,0.00038970,-0.00005768,0.00007983,0.00024524,-0.00006088
 ,-0.00016750,-0.00015124,-0.00003641,-0.00000584,-0.00003740,-0.000465
 59,0.00071043,-0.00125970,0.00924826,0.01573093,0.01470953,-0.06627596
 ,-0.16222337,-0.11347223,0.00033017,0.00019458,-0.00023128,-0.00666568
 ,-0.01196496,-0.01354958,-0.01191335,-0.01511097,-0.01613925,0.0768702
 8,0.17442158,0.00107452,0.00019689,-0.00019577,-0.00039359,-0.00040270
 ,0.00020733,-0.00031965,0.00006470,0.00026796,-0.00001666,0.00052125,-
 0.00007226,0.00009744,-0.00006168,0.00021027,-0.00039138,0.00064652,-0
 .00024345,-0.00006050,0.00018624,-0.00013206,-0.00075907,-0.00121583,0
 .00006614,-0.00975505,-0.02149754,-0.01678282,-0.07659996,-0.11391608,
 -0.18856454,0.00002892,0.00023494,0.00014141,0.00547705,0.00996797,0.0
 1327682,-0.00402807,-0.00624351,-0.00713329,0.08666637,0.12545683,0.20
 211476,0.00165261,-0.00075798,0.00031167,-0.00054695,0.00046244,0.0000
 0619,-0.00195280,-0.00088076,0.00039616,0.01205287,-0.01627128,-0.0104
 2543,-0.00263298,-0.00491402,-0.00249410,-0.00040377,-0.00025843,0.000
 23975,0.00134332,0.00005270,-0.00006245,-0.18456670,0.13456139,0.06669
 309,-0.01788729,0.01807611,0.00906692,0.00093532,0.00043323,-0.0012169
 0,-0.00845179,0.00930416,0.00527267,0.00013634,-0.00015842,-0.00025682
 ,0.00065194,-0.00055441,0.00047512,0.00007353,-0.00007482,0.00003987,0
 .20056297,0.00273352,-0.00289960,-0.00156942,-0.00095617,0.00101233,0.
 00034407,-0.00023369,0.00143302,0.00077960,0.01362912,-0.01979024,-0.0
 1021354,-0.00354576,-0.00257646,-0.00219388,-0.00025745,-0.00016081,0.
 00035594,0.00097594,0.00029497,-0.00010787,0.13052041,-0.19198347,-0.0
 6784399,-0.01202645,0.01354502,0.00649853,-0.00030822,0.00124110,-0.00
 045673,0.01007340,-0.01063307,-0.00558426,-0.00001969,0.00006207,-0.00
 018281,0.00019326,-0.00012409,-0.00008338,0.00004348,-0.00009236,0.000
 02298,-0.13710281,0.20918363,0.00044968,0.00007575,0.00036701,-0.00010
 900,0.00014890,0.00019538,0.00051188,0.00054744,-0.00046782,0.01227425
 ,-0.01729680,-0.00998198,-0.00307080,-0.00332397,-0.00138884,-0.000169
 13,0.00016512,0.00019697,0.00084639,0.00001616,-0.00034333,0.06508171,
 -0.06710817,-0.09332043,0.01404053,-0.01361189,-0.00672373,-0.00014846
 ,-0.00175135,0.00037649,-0.01944424,0.02139490,0.01292210,-0.00024788,
 0.00017694,0.00035421,-0.00027796,0.00078842,-0.00027116,0.00006973,0.
 00016200,-0.00000792,-0.07161865,0.07616712,0.09746441,0.00044403,-0.0
 0046896,-0.00198532,-0.00013350,-0.00065685,0.00064745,-0.00029267,0.0
 0019996,0.00033484,-0.00514750,-0.00331591,0.00269707,-0.00000912,0.00
 098678,0.00045302,-0.00053596,-0.00095969,-0.00037330,0.00004671,-0.00
 016812,0.00004027,-0.01856978,-0.02264422,-0.01607632,-0.12029159,-0.0
 3339711,-0.03518178,-0.00730031,-0.00806607,-0.01292220,0.00132455,0.0
 0109951,-0.00117713,0.00067491,-0.00060840,0.00180856,-0.00001136,-0.0
 0104932,0.00025179,-0.00054669,0.00062376,-0.00148998,0.00078490,-0.00
 008695,-0.00139172,0.63309009,-0.00014794,-0.00004077,-0.00071335,-0.0
 0002474,-0.00021496,0.00025572,-0.00003657,-0.00000663,0.00007825,-0.0
 0158804,-0.00088632,0.00152772,-0.00001839,-0.00012586,-0.00000079,0.0
 0013307,0.00018137,0.00025210,0.00000297,0.00006642,0.00004312,-0.0136
 9089,-0.01455284,-0.00938776,-0.03506410,-0.14318867,-0.04811187,0.008
 67214,0.01602923,0.01072627,0.00025343,0.00000748,-0.00107084,0.000303
 19,0.00057409,0.00023511,0.00041373,0.00045440,0.00061331,0.00283958,-
 0.00227808,0.00570450,0.00168968,0.00145974,-0.00027856,-0.03179991,0.
 61271086,-0.00106704,-0.00006812,0.00332889,0.00040474,0.00129772,-0.0
 0131427,0.00076982,-0.00019039,-0.00071325,0.00656318,0.00540258,-0.00
 264557,0.00057888,-0.00070188,-0.00040835,0.00016612,0.00017057,-0.000
 31494,0.00001138,-0.00023287,0.00003087,0.00627548,0.00997383,0.013806
 66,-0.03589389,-0.04723436,-0.14141029,-0.01722432,-0.01857578,-0.0245
 5793,0.00085507,0.00113132,0.00076246,-0.00019248,-0.00148591,0.000986
 75,0.00100211,-0.00064477,0.00191264,-0.00230003,0.00274073,-0.0041200
 0,0.00022405,0.00053250,0.00070289,-0.03620478,-0.05001316,0.61848165,
 -0.00009084,-0.00002376,0.00015819,0.00001719,0.00007867,-0.00005337,0
 .00005409,0.00000156,-0.00003495,0.00043196,0.00038797,-0.00010880,-0.
 00000684,-0.00022080,-0.00002925,0.00002211,0.00018795,0.00004405,-0.0
 0001972,0.00001985,0.00000262,0.00130867,-0.00035016,-0.00031466,0.012
 52717,-0.01530759,-0.00692146,0.00102803,-0.00016328,0.00068114,-0.000
 09130,-0.00000010,0.00011453,-0.00008506,0.00018406,-0.00003101,0.0000
 3319,0.00010610,0.00014739,0.00013162,-0.00010659,0.00031500,-0.000021
 75,0.00003174,-0.00000195,-0.16945540,0.12707861,0.05952041,0.17971564
 ,0.00014988,-0.00018469,-0.00014638,-0.00008672,0.00006840,0.00005195,
 -0.00009431,0.00010440,0.00011541,-0.00017392,0.00040578,0.00021624,0.
 00009568,0.00006442,0.00005794,0.00015333,0.00025273,0.00010992,-0.000
 02900,0.00007025,-0.00001612,0.00138406,0.00017569,-0.00020789,0.01474
 695,-0.01725393,-0.00745664,0.00038599,0.00061917,0.00136457,0.0000258
 6,-0.00008757,-0.00002133,-0.00011665,0.00006726,-0.00009296,-0.000440
 37,0.00073838,-0.00043611,-0.00026945,0.00022395,0.00018920,-0.0010345
 1,-0.00024440,0.00024512,0.12558725,-0.20439175,-0.06805105,-0.1377584
 5,0.21942823,0.00008504,0.00004540,-0.00006645,-0.00004885,-0.00004198
 ,0.00004658,-0.00008072,0.00000124,0.00001445,0.00001065,0.00016186,0.
 00002120,0.00003099,-0.00002102,-0.00002419,0.00010012,0.00021733,0.00
 012086,-0.00002360,0.00008130,-0.00000307,0.00066966,0.00103623,0.0002
 4583,0.01543533,-0.01698855,-0.00852845,0.00142365,-0.00037387,0.00090
 770,-0.00018601,0.00000384,0.00003998,0.00006981,0.00000684,-0.0001605
 3,-0.00074240,0.00028575,-0.00032277,-0.00017024,0.00044692,0.00031442
 ,-0.00041870,0.00000470,0.00061352,0.05825286,-0.06722401,-0.09152591,
 -0.06317561,0.07810049,0.09361477,-0.00009053,-0.00007412,0.00001339,0
 .00001546,0.00004583,0.00001012,0.00004694,0.00001009,0.00004248,0.000
 37261,0.00003113,0.00032058,0.00006668,-0.00004256,-0.00000616,0.00004
 242,0.00010326,-0.00006174,-0.00001536,-0.00000225,-0.00002642,-0.0000
 5971,0.00104739,-0.00098256,-0.00753537,0.01024745,-0.01257782,-0.0012
 8146,-0.00358560,-0.00168659,-0.00044406,-0.00088466,0.00026151,0.0002
 3023,0.00018747,-0.00018557,0.00026278,-0.00020764,0.00035069,-0.00002
 522,0.00053335,-0.00113714,-0.00007596,0.00008234,-0.00005495,-0.09920
 059,0.05280962,-0.08330606,-0.00807663,0.01080494,-0.01908360,0.101162
 91,-0.00009485,-0.00000642,0.00021311,0.00004622,0.00006889,-0.0000815
 1,0.00005829,-0.00001415,-0.00006483,0.00041721,0.00034437,-0.00013399
 ,0.00005678,-0.00001433,-0.00001711,-0.00002220,0.00000520,-0.00006839
 ,-0.00001988,-0.00003106,-0.00000576,0.00002805,0.00085841,-0.00049716
 ,-0.01019843,0.01405420,-0.02062628,-0.00246659,-0.00362599,-0.0024185
 1,-0.00033819,-0.00007188,0.00001867,0.00021793,-0.00013764,-0.0001311
 8,-0.00037432,0.00010869,-0.00006291,-0.00070469,0.00092176,-0.0012778
 4,-0.00004247,-0.00010398,0.00017639,0.05430479,-0.13307102,0.11408037
 ,0.00823870,-0.01251263,0.02164794,-0.05659895,0.13983174,0.00003534,0
 .00007756,-0.00010048,-0.00001521,-0.00011793,0.00007294,-0.00001122,-
 0.00002979,0.00003718,0.00016841,-0.00027971,0.00029675,0.00000928,-0.
 00004819,-0.00001109,-0.00004816,0.00014428,-0.00008507,-0.00004542,0.
 00003626,-0.00003408,0.00081083,0.00107674,0.00017312,-0.00707476,0.01
 298598,-0.01693320,-0.00186602,-0.00469159,-0.00208705,-0.00028974,-0.
 00052271,0.00095486,0.00010581,-0.00027319,0.00049254,-0.00016963,0.00
 011500,0.00013806,-0.00091848,0.00075869,-0.00105354,-0.00002811,-0.00
 010120,0.00002072,-0.08384068,0.11180889,-0.23565989,0.00466388,-0.006
 43506,0.01314690,0.09431117,-0.12318730,0.25337520,0.00026349,0.000101
 09,-0.00062430,-0.00011339,-0.00028711,0.00024184,-0.00018862,0.000001
 06,0.00012713,-0.00068706,-0.00088238,0.00070264,-0.00012847,0.0000149
 2,0.00000700,-0.00004376,-0.00000469,0.00011062,0.00003295,0.00006886,
 0.00000912,-0.00041715,-0.00169168,-0.00311959,-0.01306419,-0.00612033
 ,0.00887561,0.00000600,0.00002249,0.00133431,0.00010973,-0.00007017,0.
 00015747,0.00017204,0.00034883,-0.00104710,-0.00004457,-0.00004522,-0.
 00004588,0.00048777,0.00032454,-0.00011623,0.00040306,0.00012367,-0.00
 027554,-0.22818393,-0.09759828,0.10729751,-0.01641710,-0.01036311,0.01
 063902,0.01389939,0.00679491,-0.00683143,0.24279688,0.00037547,0.00002
 464,-0.00087688,-0.00014302,-0.00035849,0.00032586,-0.00023915,0.00005
 098,0.00019863,-0.00173441,-0.00061918,0.00084866,-0.00007040,0.000199
 45,0.00011723,-0.00010819,-0.00002655,0.00010317,-0.00001136,0.0000739
 4,-0.00000307,-0.00135945,-0.00260270,-0.00389347,-0.01785266,-0.01074
 379,0.01237226,0.00087196,0.00041510,0.00111053,0.00028624,0.00015732,
 -0.00039217,0.00015778,0.00070297,-0.00037572,0.00008408,0.00006304,-0
 .00012102,0.00034297,-0.00002297,-0.00001396,-0.00022386,0.00013335,0.
 00000658,-0.09694290,-0.11433252,0.06141426,0.02118648,0.01493025,-0.0
 1377600,-0.01440276,-0.00795808,0.00849410,0.10901913,0.11955330,0.000
 16067,-0.00018181,-0.00079374,-0.00007886,-0.00025101,0.00031189,-0.00
 013739,0.00008041,0.00017894,-0.00153800,-0.00128934,0.00103617,-0.000
 06039,0.00020239,0.00011160,-0.00003513,-0.00004772,0.00003231,-0.0000
 1171,0.00002156,-0.00000158,-0.00215089,-0.00254985,-0.00363196,-0.020
 58622,-0.01105473,0.01221249,-0.00035442,-0.00021894,0.00131859,0.0000
 9404,-0.00038499,0.00009863,-0.00028154,-0.00003255,-0.00043981,-0.000
 02294,0.00006470,-0.00010624,0.00027216,-0.00004549,0.00030127,-0.0001
 3574,0.00008426,-0.00021162,0.11022965,0.06358964,-0.12869085,0.008131
 20,0.00552712,-0.00585262,0.02306719,0.01164652,-0.01318384,-0.1172463
 4,-0.06628317,0.13601979,-0.00024829,0.00064950,0.00032678,0.00029402,
 -0.00046867,-0.00012135,0.00010275,-0.00042492,-0.00026213,-0.00049377
 ,0.00115617,0.00020009,-0.00009098,-0.00004313,-0.00022076,-0.00084431
 ,-0.00196113,-0.00081703,0.00001308,-0.00044155,0.00000114,-0.01962158
 ,0.01919463,0.00969147,-0.17675052,0.11932046,0.05686948,-0.00868714,0
 .00964626,0.00389746,0.00110902,-0.00047668,-0.00020960,0.00073683,-0.
 00013212,-0.00028295,0.00026670,0.00107046,-0.00283349,-0.00011082,-0.
 00069510,0.00008591,-0.00314425,-0.00371156,0.00278400,0.01295435,-0.0
 1409183,-0.00702237,-0.00096013,-0.00295647,-0.00279383,0.00063290,0.0
 0069852,0.00085557,0.00101400,0.00066919,0.00054585,0.19378057,0.00001
 636,0.00011643,0.00059027,-0.00003265,0.00023925,-0.00012079,-0.000156
 38,-0.00009498,-0.00004496,0.00165634,0.00116163,-0.00055732,-0.000412
 81,-0.00153973,-0.00094903,-0.00075958,-0.00038809,0.00005433,-0.00016
 326,0.00019506,0.00005213,-0.01503450,0.01416319,0.00724773,0.11751313
 ,-0.18148156,-0.05440017,0.01288608,-0.01320258,-0.00692392,0.00104050
 ,0.00088268,-0.00099257,-0.00048313,-0.00006811,-0.00028199,0.00108537
 ,-0.00109865,0.00410909,0.00000150,0.00140331,0.00059051,-0.00329729,-
 0.00131598,0.00217711,0.01703114,-0.01831874,-0.00919072,-0.00354404,-
 0.00241707,-0.00357058,-0.00025502,0.00133904,-0.00001957,0.00017637,0
 .00034353,0.00097831,-0.12711330,0.20032781,-0.00002563,-0.00062031,0.
 00004808,-0.00009139,0.00041005,-0.00007745,0.00012353,0.00027250,0.00
 008522,-0.00000539,-0.00004097,0.00010949,-0.00004001,-0.00023190,0.00
 006360,-0.00036383,-0.00029967,0.00060152,-0.00002196,0.00010293,0.000
 05253,0.01309650,-0.01408694,-0.00703270,0.05556113,-0.05371383,-0.086
 06484,-0.02231008,0.02281451,0.01044805,-0.00053386,-0.00032760,0.0001
 7024,0.00080587,-0.00079382,0.00118955,-0.00235424,0.00375202,-0.00500
 847,0.00055775,-0.00132398,0.00156690,0.00299864,0.00251794,-0.0014442
 2,0.01593367,-0.01822675,-0.00846951,-0.00313393,-0.00308859,-0.002610
 94,0.00068782,0.00081489,0.00037496,-0.00021594,0.00080093,0.00118038,
 -0.06056074,0.06126054,0.09476338,0.02125927,-0.01036765,0.02006134,-0
 .00587247,-0.00563870,-0.00070860,-0.00187911,0.00079908,-0.00125316,-
 0.11531362,0.06043894,-0.09042683,-0.01194533,0.01748220,-0.01570390,0
 .00064832,0.00048912,0.00010408,-0.00222239,0.00005473,0.00219409,-0.0
 0753901,0.00700456,-0.01742654,0.00007321,0.00166533,0.00038268,-0.000
 15673,-0.00078411,-0.00070980,-0.00093472,-0.00309736,-0.00160610,0.00
 022505,0.00032264,0.00034018,-0.00000757,0.00003985,0.00012319,-0.0002
 4589,-0.00048505,0.00124347,0.00126573,0.00018656,0.00075582,0.0002849
 5,-0.00014186,-0.00027324,-0.00002236,0.00000166,-0.00001518,0.0001087
 0,0.00001207,0.00017780,0.00004395,0.00003388,0.00012293,-0.00002658,-
 0.00017891,-0.00003288,0.12222463,0.00715688,-0.00755673,0.01390714,-0
 .00288086,-0.00136151,-0.00050617,0.00043389,0.00041946,-0.00180260,0.
 06005676,-0.10288521,0.10852098,0.01831967,-0.02635135,0.01607846,-0.0
 0012813,0.00041244,-0.00052130,0.00206338,-0.00183269,-0.00165690,-0.0
 1410407,0.01194378,-0.02236693,0.00033919,0.00135764,0.00093939,-0.000
 64899,-0.00021556,0.00031065,-0.00320909,-0.00393649,-0.00223907,0.000
 26176,-0.00004311,0.00004989,0.00007335,-0.00050930,-0.00010854,-0.001
 28438,-0.00088499,0.00084930,0.00106032,0.00136761,0.00089285,0.000339
 24,-0.00010960,-0.00035351,-0.00003358,-0.00004037,-0.00004888,0.00015
 695,0.00001525,0.00020397,0.00005888,0.00001737,0.00015190,0.00012415,
 -0.00021412,0.00000595,-0.06769081,0.13057666,-0.01304735,0.00745097,-
 0.01240703,0.00306811,0.00282510,-0.00009776,0.00105083,-0.00080487,0.
 00106336,-0.09229567,0.10796895,-0.24059630,0.00806790,-0.01240078,0.0
 1653038,-0.00059535,0.00077224,0.00098525,0.00002112,-0.00116338,-0.00
 348030,-0.01132515,0.00811803,-0.01493140,0.00049369,0.00014993,0.0004
 1839,0.00034554,0.00047668,0.00012296,-0.00174075,-0.00329855,-0.00071
 859,0.00013858,-0.00003089,0.00009447,-0.00003640,-0.00011436,-0.00000
 874,0.00129453,0.00118421,-0.00008113,0.00094464,0.00068391,0.00066972
 ,0.00000575,0.00017349,-0.00028903,0.00001048,-0.00000733,0.00000502,0
 .00006223,-0.00004480,0.00008261,0.00003866,-0.00002446,0.00013391,-0.
 00007366,0.00003721,0.00000803,0.10316879,-0.11196306,0.25224694,-0.03
 397529,-0.01537216,0.02914077,0.00538666,-0.00596267,-0.00712776,-0.25
 991752,-0.14077116,0.19379529,0.00028356,0.00435292,0.00305392,-0.0000
 2091,-0.00039205,0.00056398,-0.00018421,0.00026866,0.00004721,-0.00055
 083,0.00001396,0.00058952,0.00050495,0.00035207,-0.00058885,-0.0002449
 6,-0.00011905,0.00033078,0.00015356,0.00003464,-0.00001372,-0.00017488
 ,-0.00003804,-0.00011403,0.00002183,0.00004579,-0.00004488,-0.00002457
 ,-0.00002660,0.00002101,-0.00001646,-0.00001097,0.00003874,-0.00017839
 ,-0.00034467,-0.00000372,0.00007390,0.00000654,-0.00018456,-0.00002255
 ,-0.00001265,0.00002161,-0.00003614,-0.00001289,0.00000077,0.00005897,
 0.00006096,0.00001588,0.00007415,0.00002406,-0.00007504,0.00003197,-0.
 00046450,0.00040350,0.28875713,0.02975891,0.02946410,-0.02555288,-0.00
 464079,-0.00480473,0.00288486,-0.18847838,-0.18885033,0.16372665,0.003
 67193,-0.00307682,-0.00075546,0.00129533,0.00036846,-0.00102716,0.0001
 0759,-0.00035233,-0.00005802,0.00028493,0.00027419,-0.00021688,-0.0000
 2178,-0.00009598,-0.00013973,-0.00004166,0.00007779,0.00004338,-0.0000
 0945,0.00000889,0.00001297,-0.00006783,0.00008115,0.00002458,0.0000028
 0,0.00000116,-0.00000171,0.00000273,-0.00000263,0.00000045,-0.00000466
 ,-0.00001348,-0.00000270,-0.00006897,0.00019162,0.00022995,-0.00000803
 ,0.00003417,-0.00000135,0.00000664,-0.00001648,0.00000505,-0.00000627,
 -0.00000036,0.00000476,0.00000823,-0.00000096,-0.00000721,-0.00001290,
 -0.00003231,0.00000210,-0.00014618,-0.00016918,0.00001176,0.15836781,0
 .16691407,0.02044544,0.00580868,-0.01146910,-0.00738371,0.00371867,-0.
 00208687,0.20331262,0.13081896,-0.18518176,0.00317424,-0.00177571,0.00
 348599,0.00016782,0.00021130,0.00051993,0.00004195,-0.00008226,-0.0000
 8922,0.00051266,-0.00001488,-0.00019227,0.00042869,0.00029316,0.000123
 55,-0.00000006,0.00025887,-0.00013974,-0.00001285,0.00000865,0.0000577
 4,-0.00016403,0.00003080,-0.00007882,-0.00003404,-0.00002271,-0.000002
 57,0.00001900,0.00003002,0.00000222,-0.00001467,-0.00004440,-0.0000805
 0,-0.00001188,0.00034554,0.00027763,-0.00001172,0.00001898,0.00010699,
 0.00001610,-0.00001850,0.00000372,-0.00001858,0.00001970,-0.00001761,-
 0.00001858,-0.00003230,-0.00002368,-0.00005984,-0.00004563,0.00004621,
 -0.00051814,-0.00034353,0.00024924,-0.21987040,-0.13918340,0.19448890\
 \0.00000633,-0.00002166,0.00000450,-0.00000899,0.00001136,0.00000193,-
 0.00000437,0.00000486,0.00000185,-0.00000076,0.00000750,-0.00000018,0.
 00000237,0.00000677,-0.00000046,0.00000110,-0.00000507,-0.00000247,0.0
 0000365,0.00000216,-0.00000333,-0.00000212,-0.00000100,-0.00000045,-0.
 00000011,-0.00000197,0.00000371,0.00000118,0.00000216,-0.00000276,-0.0
 0000144,-0.00000080,0.00000079,-0.00000136,0.00000023,-0.00000038,0.00
 000040,-0.00000084,-0.00000003,0.00000086,0.00000042,-0.00000040,-0.00
 000002,-0.00000205,-0.00000063,0.00000204,0.00000064,-0.00000053,0.000
 00038,-0.00000062,-0.00000032,-0.00000018,0.00000031,-0.00000032,-0.00
 000051,-0.00000020,0.00000060,-0.00000122,0.00000119,-0.00000066,0.000
 00117,-0.00000380,0.00000079,0.00000164,0.00000040,-0.00000124\\\@
 Job cpu time:  0 days  2 hours 19 minutes 52.2 seconds.
 File lengths (MBytes):  RWF=  21575 Int=      0 D2E=      0 Chk=     22 Scr=      1
 Normal termination of Gaussian 03 at Mon Jun 28 05:14:22 2010.
