 Entering Link 1 = f:\gaussian\G09\l1.exe PID=      7388.
  
 Copyright (c) 1988,1990,1992,1993,1995,1998,2003,2009, Gaussian, Inc.
                  All Rights Reserved.
  
 This is part of the Gaussian(R) 09 program.  It is based on
 the Gaussian(R) 03 system (copyright 2003, Gaussian, Inc.),
 the Gaussian(R) 98 system (copyright 1998, Gaussian, Inc.),
 the Gaussian(R) 94 system (copyright 1995, Gaussian, Inc.),
 the Gaussian 92(TM) system (copyright 1992, Gaussian, Inc.),
 the Gaussian 90(TM) system (copyright 1990, Gaussian, Inc.),
 the Gaussian 88(TM) system (copyright 1988, Gaussian, Inc.),
 the Gaussian 86(TM) system (copyright 1986, Carnegie Mellon
 University), and the Gaussian 82(TM) system (copyright 1983,
 Carnegie Mellon University). Gaussian is a federally registered
 trademark of Gaussian, Inc.
  
 This software contains proprietary and confidential information,
 including trade secrets, belonging to Gaussian, Inc.
  
 This software is provided under written license and may be
 used, copied, transmitted, or stored only in accord with that
 written license.
  
 The following legend is applicable only to US Government
 contracts under FAR:
  
                    RESTRICTED RIGHTS LEGEND
  
 Use, reproduction and disclosure by the US Government is
 subject to restrictions as set forth in subparagraphs (a)
 and (c) of the Commercial Computer Software - Restricted
 Rights clause in FAR 52.227-19.
  
 Gaussian, Inc.
 340 Quinnipiac St., Bldg. 40, Wallingford CT 06492
  
  
 ---------------------------------------------------------------
 Warning -- This program may not be used in any manner that
 competes with the business of Gaussian, Inc. or will provide
 assistance to any competitor of Gaussian, Inc.  The licensee
 of this program is prohibited from giving any competitor of
 Gaussian, Inc. access to this program.  By using this program,
 the user acknowledges that Gaussian, Inc. is engaged in the
 business of creating and licensing software in the field of
 computational chemistry and represents and warrants to the
 licensee that it is not a competitor of Gaussian, Inc. and that
 it will not use this program in any manner prohibited above.
 ---------------------------------------------------------------
  

 Cite this work as:
 Gaussian 09, Revision A.02,
 M. J. Frisch, G. W. Trucks, H. B. Schlegel, G. E. Scuseria, 
 M. A. Robb, J. R. Cheeseman, G. Scalmani, V. Barone, B. Mennucci, 
 G. A. Petersson, H. Nakatsuji, M. Caricato, X. Li, H. P. Hratchian, 
 A. F. Izmaylov, J. Bloino, G. Zheng, J. L. Sonnenberg, M. Hada, 
 M. Ehara, K. Toyota, R. Fukuda, J. Hasegawa, M. Ishida, T. Nakajima, 
 Y. Honda, O. Kitao, H. Nakai, T. Vreven, J. A. Montgomery, Jr., 
 J. E. Peralta, F. Ogliaro, M. Bearpark, J. J. Heyd, E. Brothers, 
 K. N. Kudin, V. N. Staroverov, R. Kobayashi, J. Normand, 
 K. Raghavachari, A. Rendell, J. C. Burant, S. S. Iyengar, J. Tomasi, 
 M. Cossi, N. Rega, J. M. Millam, M. Klene, J. E. Knox, J. B. Cross, 
 V. Bakken, C. Adamo, J. Jaramillo, R. Gomperts, R. E. Stratmann, 
 O. Yazyev, A. J. Austin, R. Cammi, C. Pomelli, J. W. Ochterski, 
 R. L. Martin, K. Morokuma, V. G. Zakrzewski, G. A. Voth, 
 P. Salvador, J. J. Dannenberg, S. Dapprich, A. D. Daniels, 
 O. Farkas, J. B. Foresman, J. V. Ortiz, J. Cioslowski, 
 and D. J. Fox, Gaussian, Inc., Wallingford CT, 2009.
 
 ******************************************
 Gaussian 09:  IA32W-G09RevA.02 11-Jun-2009
                08-Apr-2013 
 ******************************************
 ----------------------
 # CIS/aug-cc-pVQZ scan
 ----------------------
 1/38=1,60=1/1,8;
 2/12=2,17=6,18=5,29=3,40=1/2;
 3/5=16,6=2,7=10,11=9,16=1,25=1,30=1/1,2,8,3;
 4//1;
 5/5=2,38=5/2;
 8/6=1,10=1/1,4;
 9/42=3/14;
 6/7=2,8=2,9=2,10=2,18=1/1;
 1/60=1/8(1);
 99/9=1/99;
 2/29=3/2;
 3/5=16,6=2,7=10,11=9,16=1,25=1,30=1/1,2,8,3;
 4/5=5,16=3/1;
 5/5=2,38=5/2;
 8/6=1,10=1/1,4;
 9/42=3,49=4/14;
 1/60=1/8(-6);
 99/9=1/99;
 -----------------
 hydrogen molecule
 -----------------
 Symbolic Z-matrix:
 Charge =  0 Multiplicity = 1
 H
 H                    1    r
       Variables:
  r                     0.5    Scan 25    0.1    
 
 Scan the potential surface.
 Variable   Value     No. Steps Step-Size
 -------- ----------- --------- ---------
     1       0.500000      25      0.1000
 A total of     26 points will be computed.
 ---------------------------------------------------------------------------------------------------
                            Z-MATRIX (ANGSTROMS AND DEGREES)
   CD    Cent   Atom    N1       Length/X        N2       Alpha/Y        N3        Beta/Z          J
 ---------------------------------------------------------------------------------------------------
      1      1  H 
      2      2  H        1   0.500000(     1)
 ---------------------------------------------------------------------------------------------------
                         Z-Matrix orientation:                         
 ---------------------------------------------------------------------
 Center     Atomic      Atomic             Coordinates (Angstroms)
 Number     Number       Type             X           Y           Z
 ---------------------------------------------------------------------
      1          1           0        0.000000    0.000000    0.000000
      2          1           0        0.000000    0.000000    0.500000
 ---------------------------------------------------------------------
 Stoichiometry    H2
 Framework group  D*H[C*(H.H)]
 Deg. of freedom     1
 Full point group                 D*H     NOp   8
 Largest Abelian subgroup         D2H     NOp   8
 Largest concise Abelian subgroup C2      NOp   2
                         Standard orientation:                         
 ---------------------------------------------------------------------
 Center     Atomic      Atomic             Coordinates (Angstroms)
 Number     Number       Type             X           Y           Z
 ---------------------------------------------------------------------
      1          1           0        0.000000    0.000000    0.250000
      2          1           0        0.000000    0.000000   -0.250000
 ---------------------------------------------------------------------
 Rotational constants (GHZ):      0.0000000   4011.6408023   4011.6408023
 Standard basis: Aug-CC-pVQZ (5D, 7F)
 There are    19 symmetry adapted basis functions of AG  symmetry.
 There are     5 symmetry adapted basis functions of B1G symmetry.
 There are    11 symmetry adapted basis functions of B2G symmetry.
 There are    11 symmetry adapted basis functions of B3G symmetry.
 There are     5 symmetry adapted basis functions of AU  symmetry.
 There are    19 symmetry adapted basis functions of B1U symmetry.
 There are    11 symmetry adapted basis functions of B2U symmetry.
 There are    11 symmetry adapted basis functions of B3U symmetry.
 Integral buffers will be    262144 words long.
 Raffenetti 1 integral format.
 Two-electron integral symmetry is turned on.
    92 basis functions,   114 primitive gaussians,   110 cartesian basis functions
     1 alpha electrons        1 beta electrons
       nuclear repulsion energy         1.0583544172 Hartrees.
 NAtoms=    2 NActive=    2 NUniq=    1 SFac= 3.00D+00 NAtFMM=   80 NAOKFM=F Big=F
 One-electron integrals computed using PRISM.
 NBasis=    92 RedAO= T  NBF=    19     5    11    11     5    19    11    11
 NBsUse=    92 1.00D-06 NBFU=    19     5    11    11     5    19    11    11
 Harris functional with IExCor=  205 diagonalized for initial guess.
 ExpMin= 2.36D-02 ExpMax= 8.26D+01 ExpMxC= 8.26D+01 IAcc=3 IRadAn=         0 AccDes= 0.00D+00
 HarFok:  IExCor=  205 AccDes= 0.00D+00 IRadAn=         0 IDoV= 1
 ScaDFX=  1.000000  1.000000  1.000000  1.000000
 FoFCou: FMM=F IPFlag=           0 FMFlag=      100000 FMFlg1=           0
         NFxFlg=           0 DoJE=T BraDBF=F KetDBF=T FulRan=T
         Omega=  0.000000  0.000000  1.000000  0.000000  0.000000 ICntrl=     500 IOpCl=  0
         NMat0=    1 NMatS0=    1 NMatT0=    0 NMatD0=    1 NMtDS0=    0 NMtDT0=    0
         I1Cent=           4 NGrid=           0.
 Petite list used in FoFCou.
 Initial guess orbital symmetries:
       Occupied  (SGG)
       Virtual   (SGG) (SGU) (PIU) (PIU) (SGU) (SGG) (PIG) (PIG)
                 (SGG) (SGU) (DLTG) (DLTG) (PIU) (PIU) (SGU) (PIG)
                 (PIG) (SGG) (DLTU) (DLTU) (PIU) (PIU) (SGU) (SGG)
                 (SGU) (PIG) (PIG) (PHIU) (PHIU) (SGG) (PIU) (PIU)
                 (SGU) (DLTU) (DLTU) (DLTG) (DLTG) (SGG) (PHIG)
                 (PHIG) (PIG) (PIG) (PIU) (PIU) (DLTG) (DLTG) (SGU)
                 (SGG) (PIG) (PIG) (SGU) (PIU) (PIU) (DLTU) (DLTU)
                 (SGG) (PIG) (PIG) (SGU) (SGG) (PHIU) (PHIU) (DLTG)
                 (DLTG) (PIU) (PIU) (SGU) (PHIG) (PHIG) (PIG) (PIG)
                 (DLTU) (DLTU) (PIU) (PIU) (SGG) (DLTG) (DLTG)
                 (SGG) (PIG) (PIG) (SGU) (PIU) (PIU) (SGU) (DLTU)
                 (DLTU) (PIG) (PIG) (SGU) (SGG)
 The electronic state of the initial guess is 1-SGG.
 Requested convergence on RMS density matrix=1.00D-08 within 128 cycles.
 Requested convergence on MAX density matrix=1.00D-06.
 Requested convergence on             energy=1.00D-06.
 No special actions if energy rises.
 Keep R1 ints in memory in canonical form, NReq=20634486.
 SCF Done:  E(RHF) =  -1.06469738871     A.U. after    6 cycles
             Convg  =    0.3934D-08             -V/T =  1.7313
 Range of M.O.s used for correlation:     1    92
 NBasis=    92 NAE=     1 NBE=     1 NFC=     0 NFV=     0
 NROrb=     92 NOA=     1 NOB=     1 NVA=    91 NVB=    91

 **** Warning!!: The largest alpha MO coefficient is  0.15913579D+03

 Semi-Direct transformation.
 ModeAB=           4 MOrb=             1 LenV=      33243340
 LASXX=         8281 LTotXX=        8281 LenRXX=       20840
 LTotAB=       12559 MaxLAS=      310408 LenRXY=           0
 NonZer=       29121 LenScr=     1048064 LnRSAI=      310408
 LnScr1=     1048064 LExtra=           0 Total=      2427376
 MaxDsk=          -1 SrtSym=           T ITran=            3
 JobTyp=0 Pass  1:  I=   1 to   1.
 (rs|ai) integrals will be sorted in core.
 Spin components of T(2) and E(2):
     alpha-alpha T2 =       0.0000000000D+00 E2=      0.0000000000D+00
     alpha-beta  T2 =       0.8022352401D-02 E2=     -0.3291173065D-01
     beta-beta   T2 =       0.0000000000D+00 E2=      0.0000000000D+00
 ANorm=    0.1004003164D+01
 E2 =    -0.3291173065D-01 EUMP2 =    -0.10976091193597D+01
 Orbital symmetries:
       Occupied  (SGG)
       Virtual   (SGG) (SGU) (SGU) (PIU) (PIU) (SGG) (PIG) (PIG)
                 (SGG) (SGU) (DLTG) (DLTG) (SGU) (PIG) (PIG) (SGG)
                 (PIU) (PIU) (DLTU) (DLTU) (PIU) (PIU) (SGU) (SGG)
                 (SGU) (PIG) (PIG) (PHIU) (PHIU) (SGG) (PIU) (PIU)
                 (DLTU) (DLTU) (SGU) (DLTG) (DLTG) (SGG) (PHIG)
                 (PHIG) (PIG) (PIG) (PIU) (PIU) (DLTG) (DLTG) (SGU)
                 (SGG) (PIG) (PIG) (SGU) (PIU) (PIU) (DLTU) (DLTU)
                 (SGG) (PIG) (PIG) (SGU) (PHIU) (PHIU) (SGG) (DLTG)
                 (DLTG) (PIU) (PIU) (SGU) (PHIG) (PHIG) (PIG) (PIG)
                 (DLTU) (DLTU) (PIU) (PIU) (SGG) (DLTG) (DLTG)
                 (SGG) (PIG) (PIG) (SGU) (PIU) (PIU) (SGU) (DLTU)
                 (DLTU) (PIG) (PIG) (SGU) (SGG)
    24 initial guesses have been made.
 Convergence on wavefunction:    0.001000000000000
 Iteration     1 Dimension    24 NMult    24
 New state      1 was old state      2
 New state      2 was old state      1
 New state      3 was old state      4
 Iteration     2 Dimension    48 NMult    48
 No map to state      3
 Iteration     3 Dimension    51 NMult    51
 ***********************************************************************
 Excited states from <AA,BB:AA,BB> singles matrix:
 ***********************************************************************
 
 Ground to excited state transition electric dipole moments (Au):
       state          X           Y           Z        Dip. S.      Osc.
         1         0.0000      0.0000      0.0000      0.0000      0.0000
         2         0.0000      0.0000     -0.7236      0.5237      0.1953
         3        -0.5826      0.6098      0.0000      0.7113      0.2832
 Ground to excited state transition velocity dipole moments (Au):
       state          X           Y           Z        Dip. S.      Osc.
         1         0.0000      0.0000      0.0000      0.0000      0.0000
         2         0.0000      0.0000      0.3641      0.1326      0.1579
         3         0.3209     -0.3358      0.0000      0.2157      0.2408
 Ground to excited state transition magnetic dipole moments (Au):
       state          X           Y           Z
         1         0.0000      0.0000      0.0000
         2         0.0000      0.0000      0.0000
         3         0.0000      0.0000      0.0000
 <0|del|b> * <b|rxdel|0> + <0|del|b> * <b|delr+rdel|0>
 Rotatory Strengths (R) in cgs (10**-40 erg-esu-cm/Gauss)
       state          XX          YY          ZZ    R(velocity)
         1         0.0000      0.0000      0.0000      0.0000
 Total R(velocity) tensor for State=          1
                 1             2             3 
      1   0.000000D+00  0.000000D+00  0.000000D+00
      2   0.000000D+00  0.000000D+00  0.000000D+00
      3   0.000000D+00  0.000000D+00  0.000000D+00
 R(velocity) tensor in inp. orien. for State=          1
                 1             2             3 
      1   0.000000D+00  0.000000D+00  0.000000D+00
      2   0.000000D+00  0.000000D+00  0.000000D+00
      3   0.000000D+00  0.000000D+00  0.000000D+00
         2         0.0000      0.0000      0.0000      0.0000
 Total R(velocity) tensor for State=          2
                 1             2             3 
      1   0.000000D+00  0.000000D+00  0.000000D+00
      2   0.000000D+00  0.000000D+00  0.000000D+00
      3   0.000000D+00  0.000000D+00  0.000000D+00
 R(velocity) tensor in inp. orien. for State=          2
                 1             2             3 
      1   0.000000D+00  0.000000D+00  0.000000D+00
      2   0.000000D+00  0.000000D+00  0.000000D+00
      3   0.000000D+00  0.000000D+00  0.000000D+00
         3         0.0000      0.0000      0.0000      0.0000
 Total R(velocity) tensor for State=          3
                 1             2             3 
      1   0.000000D+00  0.000000D+00  0.000000D+00
      2   0.000000D+00  0.000000D+00  0.000000D+00
      3   0.000000D+00  0.000000D+00  0.000000D+00
 R(velocity) tensor in inp. orien. for State=          3
                 1             2             3 
      1   0.000000D+00  0.000000D+00  0.000000D+00
      2   0.000000D+00  0.000000D+00  0.000000D+00
      3   0.000000D+00  0.000000D+00  0.000000D+00
 1/2[<0|r|b>*<b|rxdel|0> + (<0|rxdel|b>*<b|r|0>)*]
 Rotatory Strengths (R) in cgs (10**-40 erg-esu-cm/Gauss)
       state          XX          YY          ZZ     R(length)     R(au)
         1         0.0000      0.0000      0.0000      0.0000      0.0000
         2         0.0000      0.0000      0.0000      0.0000      0.0000
         3         0.0000      0.0000      0.0000      0.0000      0.0000
  1/2[<0|del|b>*<b|r|0> + (<0|r|b>*<b|del|0>)*] (Au)
       state          X           Y           Z        Dip. S.   Osc.(frdel)
         1         0.0000      0.0000      0.0000      0.0000      0.0000
         2         0.0000      0.0000     -0.2635      0.2635      0.1756
         3        -0.1869     -0.2048      0.0000      0.3917      0.2611
 Ground to excited state transition densities written to RWF  633

 Excitation energies and oscillator strengths:
 
 Excited State   1:      Singlet-SGG   15.1903 eV   81.62 nm  f=0.0000  <S**2>=0.000
       1 ->  2         0.69184
       1 -> 10        -0.12094
 This state for optimization and/or second-order correction.
 Copying the excited state density for this state as the 1-particle RhoCI density.
 
 Excited State   2:      Singlet-SGU   15.2258 eV   81.43 nm  f=0.1953  <S**2>=0.000
       1 ->  3         0.57902
       1 ->  4        -0.39030
       1 -> 11         0.10942
 
 Excited state symmetry could not be determined.
 Excited State   3:      Singlet-?Sym   16.2493 eV   76.30 nm  f=0.2832  <S**2>=0.000
       1 ->  5         0.48587
       1 ->  6        -0.50854
 SavETr:  write IOETrn=   770 NScale= 10 NData=  16 NLR=1 LETran=      62.

 **********************************************************************

            Population analysis using the SCF density.

 **********************************************************************

 Orbital symmetries:
       Occupied  (SGG)
       Virtual   (SGG) (SGU) (SGU) (PIU) (PIU) (SGG) (PIG) (PIG)
                 (SGG) (SGU) (DLTG) (DLTG) (SGU) (PIG) (PIG) (SGG)
                 (PIU) (PIU) (DLTU) (DLTU) (PIU) (PIU) (SGU) (SGG)
                 (SGU) (PIG) (PIG) (PHIU) (PHIU) (SGG) (PIU) (PIU)
                 (DLTU) (DLTU) (SGU) (DLTG) (DLTG) (SGG) (PHIG)
                 (PHIG) (PIG) (PIG) (PIU) (PIU) (DLTG) (DLTG) (SGU)
                 (SGG) (PIG) (PIG) (SGU) (PIU) (PIU) (DLTU) (DLTU)
                 (SGG) (PIG) (PIG) (SGU) (PHIU) (PHIU) (SGG) (DLTG)
                 (DLTG) (PIU) (PIU) (SGU) (PHIG) (PHIG) (PIG) (PIG)
                 (DLTU) (DLTU) (PIU) (PIU) (SGG) (DLTG) (DLTG)
                 (SGG) (PIG) (PIG) (SGU) (PIU) (PIU) (SGU) (DLTU)
                 (DLTU) (PIG) (PIG) (SGU) (SGG)
 The electronic state is 1-SGG.
 Alpha  occ. eigenvalues --   -0.68212
 Alpha virt. eigenvalues --    0.04507   0.04855   0.17119   0.17931   0.17931
 Alpha virt. eigenvalues --    0.22859   0.23522   0.23522   0.31552   0.38602
 Alpha virt. eigenvalues --    0.61260   0.61260   0.63678   0.67319   0.67319
 Alpha virt. eigenvalues --    0.69850   0.70448   0.70448   0.70552   0.70552
 Alpha virt. eigenvalues --    0.73608   0.73608   0.84170   1.11244   1.44888
 Alpha virt. eigenvalues --    1.45881   1.45881   1.54415   1.54415   1.73372
 Alpha virt. eigenvalues --    1.81605   1.81605   1.82397   1.82397   1.82441
 Alpha virt. eigenvalues --    1.90935   1.90935   1.91196   1.91454   1.91454
 Alpha virt. eigenvalues --    1.91923   1.91923   2.39992   2.39992   2.44190
 Alpha virt. eigenvalues --    2.44190   2.71342   2.84325   2.92912   2.92912
 Alpha virt. eigenvalues --    3.55927   3.89058   3.89058   3.90997   3.90997
 Alpha virt. eigenvalues --    4.13020   4.98974   4.98974   5.20817   6.29466
 Alpha virt. eigenvalues --    6.29466   6.30088   7.17107   7.17107   7.31155
 Alpha virt. eigenvalues --    7.31155   7.41121   7.51462   7.51462   7.53832
 Alpha virt. eigenvalues --    7.53832   7.78249   7.78249   8.04985   8.04985
 Alpha virt. eigenvalues --    8.16231   8.32925   8.32925   9.66632   9.83191
 Alpha virt. eigenvalues --    9.83191  10.07405  10.75371  10.75371  11.02635
 Alpha virt. eigenvalues --   11.41935  11.41935  15.61297  15.61297  17.35444
 Alpha virt. eigenvalues --   18.67293
          Condensed to atoms (all electrons):
              1          2
     1  H    0.545821   0.454179
     2  H    0.454179   0.545821
 Mulliken atomic charges:
              1
     1  H    0.000000
     2  H    0.000000
 Sum of Mulliken atomic charges =   0.00000
 Mulliken charges with hydrogens summed into heavy atoms:
              1
 Sum of Mulliken charges with hydrogens summed into heavy atoms =   0.00000
 Electronic spatial extent (au):  <R**2>=              3.9939
 Charge=              0.0000 electrons
 Dipole moment (field-independent basis, Debye):
    X=              0.0000    Y=              0.0000    Z=              0.0000  Tot=              0.0000
 Quadrupole moment (field-independent basis, Debye-Ang):
   XX=             -1.6995   YY=             -1.6995   ZZ=             -1.3725
   XY=              0.0000   XZ=              0.0000   YZ=              0.0000
 Traceless Quadrupole moment (field-independent basis, Debye-Ang):
   XX=             -0.1090   YY=             -0.1090   ZZ=              0.2180
   XY=              0.0000   XZ=              0.0000   YZ=              0.0000
 Octapole moment (field-independent basis, Debye-Ang**2):
  XXX=              0.0000  YYY=              0.0000  ZZZ=              0.0000  XYY=              0.0000
  XXY=              0.0000  XXZ=              0.0000  XZZ=              0.0000  YZZ=              0.0000
  YYZ=              0.0000  XYZ=              0.0000
 Hexadecapole moment (field-independent basis, Debye-Ang**3):
 XXXX=             -1.4083 YYYY=             -1.4083 ZZZZ=             -1.6311 XXXY=              0.0000
 XXXZ=              0.0000 YYYX=              0.0000 YYYZ=              0.0000 ZZZX=              0.0000
 ZZZY=              0.0000 XXYY=             -0.4694 XXZZ=             -0.5101 YYZZ=             -0.5101
 XXYZ=              0.0000 YYXZ=              0.0000 ZZXY=              0.0000
 N-N= 1.058354417180D+00 E-N=-4.337789746709D+00  KE= 1.455923710367D+00
 Symmetry AG   KE= 1.455923710367D+00
 Symmetry B1G  KE= 3.440201918449D-54
 Symmetry B2G  KE= 3.554163179197D-30
 Symmetry B3G  KE= 3.554163179199D-30
 Symmetry AU   KE=-3.700779486631D-55
 Symmetry B1U  KE=-2.258519505206D-22
 Symmetry B2U  KE= 5.511841150301D-33
 Symmetry B3U  KE= 5.511841150301D-33
 Variable Step   Value    
 -------- ---- -----------
     1       1    1.133836
 ---------------------------------------------------------------------------------------------------
                            Z-MATRIX (ANGSTROMS AND DEGREES)
   CD    Cent   Atom    N1       Length/X        N2       Alpha/Y        N3        Beta/Z          J
 ---------------------------------------------------------------------------------------------------
      1      1  H 
      2      2  H        1   0.600000(     1)
 ---------------------------------------------------------------------------------------------------
                         Z-Matrix orientation:                         
 ---------------------------------------------------------------------
 Center     Atomic      Atomic             Coordinates (Angstroms)
 Number     Number       Type             X           Y           Z
 ---------------------------------------------------------------------
      1          1           0        0.000000    0.000000    0.000000
      2          1           0        0.000000    0.000000    0.600000
 ---------------------------------------------------------------------
 Stoichiometry    H2
 Framework group  D*H[C*(H.H)]
 Deg. of freedom     1
 Full point group                 D*H     NOp   8
 Largest Abelian subgroup         D2H     NOp   8
 Largest concise Abelian subgroup C2      NOp   2
                         Standard orientation:                         
 ---------------------------------------------------------------------
 Center     Atomic      Atomic             Coordinates (Angstroms)
 Number     Number       Type             X           Y           Z
 ---------------------------------------------------------------------
      1          1           0        0.000000    0.000000    0.300000
      2          1           0        0.000000    0.000000   -0.300000
 ---------------------------------------------------------------------
 Rotational constants (GHZ):      0.0000000   2785.8616682   2785.8616682
 Standard basis: Aug-CC-pVQZ (5D, 7F)
 There are    19 symmetry adapted basis functions of AG  symmetry.
 There are     5 symmetry adapted basis functions of B1G symmetry.
 There are    11 symmetry adapted basis functions of B2G symmetry.
 There are    11 symmetry adapted basis functions of B3G symmetry.
 There are     5 symmetry adapted basis functions of AU  symmetry.
 There are    19 symmetry adapted basis functions of B1U symmetry.
 There are    11 symmetry adapted basis functions of B2U symmetry.
 There are    11 symmetry adapted basis functions of B3U symmetry.
 Integral buffers will be    262144 words long.
 Raffenetti 1 integral format.
 Two-electron integral symmetry is turned on.
    92 basis functions,   114 primitive gaussians,   110 cartesian basis functions
     1 alpha electrons        1 beta electrons
       nuclear repulsion energy         0.8819620143 Hartrees.
 NAtoms=    2 NActive=    2 NUniq=    1 SFac= 3.00D+00 NAtFMM=   80 NAOKFM=F Big=F
 One-electron integrals computed using PRISM.
 NBasis=    92 RedAO= T  NBF=    19     5    11    11     5    19    11    11
 NBsUse=    92 1.00D-06 NBFU=    19     5    11    11     5    19    11    11
 Initial guess read from the read-write file.
 B after Tr=     0.000000    0.000000    0.000000
         Rot=    1.000000    0.000000    0.000000    0.000000 Ang=   0.00 deg.
 Initial guess orbital symmetries:
       Occupied  (SGG)
       Virtual   (SGG) (SGU) (SGU) (PIU) (PIU) (SGG) (PIG) (PIG)
                 (SGG) (SGU) (DLTG) (DLTG) (SGU) (PIG) (PIG) (SGG)
                 (PIU) (PIU) (DLTU) (DLTU) (PIU) (PIU) (SGU) (SGG)
                 (SGU) (PIG) (PIG) (PHIU) (PHIU) (SGG) (PIU) (PIU)
                 (DLTU) (DLTU) (SGU) (DLTG) (DLTG) (SGG) (PHIG)
                 (PHIG) (PIG) (PIG) (PIU) (PIU) (DLTG) (DLTG) (SGU)
                 (SGG) (PIG) (PIG) (SGU) (PIU) (PIU) (DLTU) (DLTU)
                 (SGG) (PIG) (PIG) (SGU) (PHIU) (PHIU) (SGG) (DLTG)
                 (DLTG) (PIU) (PIU) (SGU) (PHIG) (PHIG) (PIG) (PIG)
                 (DLTU) (DLTU) (PIU) (PIU) (SGG) (DLTG) (DLTG)
                 (SGG) (PIG) (PIG) (SGU) (PIU) (PIU) (SGU) (DLTU)
                 (DLTU) (PIG) (PIG) (SGU) (SGG)
 Harris functional with IExCor=  205 diagonalized for initial guess.
 ExpMin= 2.36D-02 ExpMax= 8.26D+01 ExpMxC= 8.26D+01 IAcc=3 IRadAn=         0 AccDes= 0.00D+00
 HarFok:  IExCor=  205 AccDes= 0.00D+00 IRadAn=         0 IDoV= 1
 ScaDFX=  1.000000  1.000000  1.000000  1.000000
 FoFCou: FMM=F IPFlag=           0 FMFlag=      100000 FMFlg1=           0
         NFxFlg=           0 DoJE=T BraDBF=F KetDBF=T FulRan=T
         Omega=  0.000000  0.000000  1.000000  0.000000  0.000000 ICntrl=     500 IOpCl=  0
         NMat0=    1 NMatS0=    1 NMatT0=    0 NMatD0=    1 NMtDS0=    0 NMtDT0=    0
         I1Cent=           4 NGrid=           0.
 Petite list used in FoFCou.
 Requested convergence on RMS density matrix=1.00D-08 within 128 cycles.
 Requested convergence on MAX density matrix=1.00D-06.
 Requested convergence on             energy=1.00D-06.
 No special actions if energy rises.
 Keep R1 ints in memory in canonical form, NReq=20634486.
 SCF Done:  E(RHF) =  -1.11620378522     A.U. after    7 cycles
             Convg  =    0.4411D-08             -V/T =  1.8610
 Range of M.O.s used for correlation:     1    92
 NBasis=    92 NAE=     1 NBE=     1 NFC=     0 NFV=     0
 NROrb=     92 NOA=     1 NOB=     1 NVA=    91 NVB=    91

 **** Warning!!: The largest alpha MO coefficient is  0.14680729D+03

 Semi-Direct transformation.
 ModeAB=           4 MOrb=             1 LenV=      33243340
 LASXX=         8281 LTotXX=        8281 LenRXX=       20840
 LTotAB=       12559 MaxLAS=      310408 LenRXY=           0
 NonZer=       29121 LenScr=     1048064 LnRSAI=      310408
 LnScr1=     1048064 LExtra=           0 Total=      2427376
 MaxDsk=          -1 SrtSym=           T ITran=            3
 JobTyp=0 Pass  1:  I=   1 to   1.
 (rs|ai) integrals will be sorted in core.
 Spin components of T(2) and E(2):
     alpha-alpha T2 =       0.0000000000D+00 E2=      0.0000000000D+00
     alpha-beta  T2 =       0.8908047123D-02 E2=     -0.3291777042D-01
     beta-beta   T2 =       0.0000000000D+00 E2=      0.0000000000D+00
 ANorm=    0.1004444148D+01
 E2 =    -0.3291777042D-01 EUMP2 =    -0.11491215556411D+01
 Orbital symmetries:
       Occupied  (SGG)
       Virtual   (SGG) (SGU) (SGU) (PIU) (PIU) (SGG) (PIG) (PIG)
                 (SGG) (SGU) (SGU) (DLTG) (DLTG) (PIG) (PIG) (SGG)
                 (PIU) (PIU) (DLTU) (DLTU) (PIU) (PIU) (SGU) (SGG)
                 (SGU) (PIG) (PIG) (PHIU) (PHIU) (SGG) (PIU) (PIU)
                 (DLTU) (DLTU) (SGG) (PIG) (PIG) (DLTG) (DLTG)
                 (PHIG) (PHIG) (SGU) (SGU) (PIU) (PIU) (DLTG) (DLTG)
                 (SGG) (PIG) (PIG) (SGU) (PIU) (PIU) (DLTU) (DLTU)
                 (SGG) (SGU) (PIG) (PIG) (SGG) (PHIU) (PHIU) (DLTG)
                 (DLTG) (PIU) (PIU) (PHIG) (PHIG) (PIG) (PIG) (SGU)
                 (DLTU) (DLTU) (SGG) (PIU) (PIU) (DLTG) (DLTG)
                 (SGG) (SGU) (PIG) (PIG) (PIU) (PIU) (DLTU) (DLTU)
                 (SGU) (PIG) (PIG) (SGU) (SGG)
 Generating guess from densities on rwf.
 Convergence on wavefunction:    0.001000000000000
 Iteration     1 Dimension     3 NMult     3
 New state      1 was old state      2
 New state      2 was old state      1
 Iteration     2 Dimension     6 NMult     6
 Iteration     3 Dimension     9 NMult     9
 Iteration     4 Dimension    11 NMult    11
 Iteration     5 Dimension    12 NMult    12
 ***********************************************************************
 Excited states from <AA,BB:AA,BB> singles matrix:
 ***********************************************************************
 
 Ground to excited state transition electric dipole moments (Au):
       state          X           Y           Z        Dip. S.      Osc.
         1         0.0000      0.0000     -0.8273      0.6845      0.2366
         2         0.0000      0.0000      0.0000      0.0000      0.0000
         3        -0.6298      0.6592      0.0000      0.8312      0.3101
 Ground to excited state transition velocity dipole moments (Au):
       state          X           Y           Z        Dip. S.      Osc.
         1         0.0000      0.0000      0.3790      0.1436      0.1847
         2         0.0000      0.0000      0.0000      0.0000      0.0000
         3         0.3239     -0.3390      0.0000      0.2199      0.2619
 Ground to excited state transition magnetic dipole moments (Au):
       state          X           Y           Z
         1         0.0000      0.0000      0.0000
         2         0.0000      0.0000      0.0000
         3         0.0000      0.0000      0.0000
 <0|del|b> * <b|rxdel|0> + <0|del|b> * <b|delr+rdel|0>
 Rotatory Strengths (R) in cgs (10**-40 erg-esu-cm/Gauss)
       state          XX          YY          ZZ    R(velocity)
         1         0.0000      0.0000      0.0000      0.0000
 Total R(velocity) tensor for State=          1
                 1             2             3 
      1   0.000000D+00  0.000000D+00  0.000000D+00
      2   0.000000D+00  0.000000D+00  0.000000D+00
      3   0.000000D+00  0.000000D+00  0.000000D+00
 R(velocity) tensor in inp. orien. for State=          1
                 1             2             3 
      1   0.000000D+00  0.000000D+00  0.000000D+00
      2   0.000000D+00  0.000000D+00  0.000000D+00
      3   0.000000D+00  0.000000D+00  0.000000D+00
         2         0.0000      0.0000      0.0000      0.0000
 Total R(velocity) tensor for State=          2
                 1             2             3 
      1   0.000000D+00  0.000000D+00  0.000000D+00
      2   0.000000D+00  0.000000D+00  0.000000D+00
      3   0.000000D+00  0.000000D+00  0.000000D+00
 R(velocity) tensor in inp. orien. for State=          2
                 1             2             3 
      1   0.000000D+00  0.000000D+00  0.000000D+00
      2   0.000000D+00  0.000000D+00  0.000000D+00
      3   0.000000D+00  0.000000D+00  0.000000D+00
         3         0.0000      0.0000      0.0000      0.0000
 Total R(velocity) tensor for State=          3
                 1             2             3 
      1   0.000000D+00  0.000000D+00  0.000000D+00
      2   0.000000D+00  0.000000D+00  0.000000D+00
      3   0.000000D+00  0.000000D+00  0.000000D+00
 R(velocity) tensor in inp. orien. for State=          3
                 1             2             3 
      1   0.000000D+00  0.000000D+00  0.000000D+00
      2   0.000000D+00  0.000000D+00  0.000000D+00
      3   0.000000D+00  0.000000D+00  0.000000D+00
 1/2[<0|r|b>*<b|rxdel|0> + (<0|rxdel|b>*<b|r|0>)*]
 Rotatory Strengths (R) in cgs (10**-40 erg-esu-cm/Gauss)
       state          XX          YY          ZZ     R(length)     R(au)
         1         0.0000      0.0000      0.0000      0.0000      0.0000
         2         0.0000      0.0000      0.0000      0.0000      0.0000
         3         0.0000      0.0000      0.0000      0.0000      0.0000
  1/2[<0|del|b>*<b|r|0> + (<0|r|b>*<b|del|0>)*] (Au)
       state          X           Y           Z        Dip. S.   Osc.(frdel)
         1         0.0000      0.0000     -0.3136      0.3136      0.2090
         2         0.0000      0.0000      0.0000      0.0000      0.0000
         3        -0.2040     -0.2235      0.0000      0.4275      0.2850
 Ground to excited state transition densities written to RWF  633

 Excitation energies and oscillator strengths:
 
 Excited State   1:      Singlet-SGU   14.1072 eV   87.89 nm  f=0.2366  <S**2>=0.000
       1 ->  3         0.58356
       1 ->  4        -0.38790
 This state for optimization and/or second-order correction.
 Copying the excited state density for this state as the 1-particle RhoCI density.
 
 Excited State   2:      Singlet-SGG   14.2060 eV   87.28 nm  f=0.0000  <S**2>=0.000
       1 ->  2         0.69420
       1 -> 10        -0.11412
 
 Excited state symmetry could not be determined.
 Excited State   3:      Singlet-?Sym   15.2282 eV   81.42 nm  f=0.3101  <S**2>=0.000
       1 ->  5        -0.50895
       1 ->  6         0.48626
 SavETr:  write IOETrn=   770 NScale= 10 NData=  16 NLR=1 LETran=      62.
 Variable Step   Value    
 -------- ---- -----------
     1       2    1.322808
 ---------------------------------------------------------------------------------------------------
                            Z-MATRIX (ANGSTROMS AND DEGREES)
   CD    Cent   Atom    N1       Length/X        N2       Alpha/Y        N3        Beta/Z          J
 ---------------------------------------------------------------------------------------------------
      1      1  H 
      2      2  H        1   0.700000(     1)
 ---------------------------------------------------------------------------------------------------
                         Z-Matrix orientation:                         
 ---------------------------------------------------------------------
 Center     Atomic      Atomic             Coordinates (Angstroms)
 Number     Number       Type             X           Y           Z
 ---------------------------------------------------------------------
      1          1           0        0.000000    0.000000    0.000000
      2          1           0        0.000000    0.000000    0.700000
 ---------------------------------------------------------------------
 Stoichiometry    H2
 Framework group  D*H[C*(H.H)]
 Deg. of freedom     1
 Full point group                 D*H     NOp   8
 Largest Abelian subgroup         D2H     NOp   8
 Largest concise Abelian subgroup C2      NOp   2
                         Standard orientation:                         
 ---------------------------------------------------------------------
 Center     Atomic      Atomic             Coordinates (Angstroms)
 Number     Number       Type             X           Y           Z
 ---------------------------------------------------------------------
      1          1           0        0.000000    0.000000    0.350000
      2          1           0        0.000000    0.000000   -0.350000
 ---------------------------------------------------------------------
 Rotational constants (GHZ):      0.0000000   2046.7555114   2046.7555114
 Standard basis: Aug-CC-pVQZ (5D, 7F)
 There are    19 symmetry adapted basis functions of AG  symmetry.
 There are     5 symmetry adapted basis functions of B1G symmetry.
 There are    11 symmetry adapted basis functions of B2G symmetry.
 There are    11 symmetry adapted basis functions of B3G symmetry.
 There are     5 symmetry adapted basis functions of AU  symmetry.
 There are    19 symmetry adapted basis functions of B1U symmetry.
 There are    11 symmetry adapted basis functions of B2U symmetry.
 There are    11 symmetry adapted basis functions of B3U symmetry.
 Integral buffers will be    262144 words long.
 Raffenetti 1 integral format.
 Two-electron integral symmetry is turned on.
    92 basis functions,   114 primitive gaussians,   110 cartesian basis functions
     1 alpha electrons        1 beta electrons
       nuclear repulsion energy         0.7559674408 Hartrees.
 NAtoms=    2 NActive=    2 NUniq=    1 SFac= 3.00D+00 NAtFMM=   80 NAOKFM=F Big=F
 One-electron integrals computed using PRISM.
 NBasis=    92 RedAO= T  NBF=    19     5    11    11     5    19    11    11
 NBsUse=    92 1.00D-06 NBFU=    19     5    11    11     5    19    11    11
 Initial guess read from the read-write file.
 B after Tr=     0.000000    0.000000    0.000000
         Rot=    1.000000    0.000000    0.000000    0.000000 Ang=   0.00 deg.
 Initial guess orbital symmetries:
       Occupied  (SGG)
       Virtual   (SGG) (SGU) (SGU) (PIU) (PIU) (SGG) (PIG) (PIG)
                 (SGG) (SGU) (SGU) (DLTG) (DLTG) (PIG) (PIG) (SGG)
                 (PIU) (PIU) (DLTU) (DLTU) (PIU) (PIU) (SGU) (SGG)
                 (SGU) (PIG) (PIG) (PHIU) (PHIU) (SGG) (PIU) (PIU)
                 (DLTU) (DLTU) (SGG) (PIG) (PIG) (DLTG) (DLTG)
                 (PHIG) (PHIG) (SGU) (SGU) (PIU) (PIU) (DLTG) (DLTG)
                 (SGG) (PIG) (PIG) (SGU) (PIU) (PIU) (DLTU) (DLTU)
                 (SGG) (SGU) (PIG) (PIG) (SGG) (PHIU) (PHIU) (DLTG)
                 (DLTG) (PIU) (PIU) (PHIG) (PHIG) (PIG) (PIG) (SGU)
                 (DLTU) (DLTU) (SGG) (PIU) (PIU) (DLTG) (DLTG)
                 (SGG) (SGU) (PIG) (PIG) (PIU) (PIU) (DLTU) (DLTU)
                 (SGU) (PIG) (PIG) (SGU) (SGG)
 Harris functional with IExCor=  205 diagonalized for initial guess.
 ExpMin= 2.36D-02 ExpMax= 8.26D+01 ExpMxC= 8.26D+01 IAcc=3 IRadAn=         0 AccDes= 0.00D+00
 HarFok:  IExCor=  205 AccDes= 0.00D+00 IRadAn=         0 IDoV= 1
 ScaDFX=  1.000000  1.000000  1.000000  1.000000
 FoFCou: FMM=F IPFlag=           0 FMFlag=      100000 FMFlg1=           0
         NFxFlg=           0 DoJE=T BraDBF=F KetDBF=T FulRan=T
         Omega=  0.000000  0.000000  1.000000  0.000000  0.000000 ICntrl=     500 IOpCl=  0
         NMat0=    1 NMatS0=    1 NMatT0=    0 NMatD0=    1 NMtDS0=    0 NMtDT0=    0
         I1Cent=           4 NGrid=           0.
 Petite list used in FoFCou.
 Requested convergence on RMS density matrix=1.00D-08 within 128 cycles.
 Requested convergence on MAX density matrix=1.00D-06.
 Requested convergence on             energy=1.00D-06.
 No special actions if energy rises.
 Keep R1 ints in memory in canonical form, NReq=20634486.
 SCF Done:  E(RHF) =  -1.13263362450     A.U. after    7 cycles
             Convg  =    0.5037D-08             -V/T =  1.9683
 Range of M.O.s used for correlation:     1    92
 NBasis=    92 NAE=     1 NBE=     1 NFC=     0 NFV=     0
 NROrb=     92 NOA=     1 NOB=     1 NVA=    91 NVB=    91

 **** Warning!!: The largest alpha MO coefficient is  0.10094643D+03

 Semi-Direct transformation.
 ModeAB=           4 MOrb=             1 LenV=      33243340
 LASXX=         8281 LTotXX=        8281 LenRXX=       20840
 LTotAB=       12559 MaxLAS=      310408 LenRXY=           0
 NonZer=       29121 LenScr=     1048064 LnRSAI=      310408
 LnScr1=     1048064 LExtra=           0 Total=      2427376
 MaxDsk=          -1 SrtSym=           T ITran=            3
 JobTyp=0 Pass  1:  I=   1 to   1.
 (rs|ai) integrals will be sorted in core.
 Spin components of T(2) and E(2):
     alpha-alpha T2 =       0.0000000000D+00 E2=      0.0000000000D+00
     alpha-beta  T2 =       0.9952499900D-02 E2=     -0.3311721663D-01
     beta-beta   T2 =       0.0000000000D+00 E2=      0.0000000000D+00
 ANorm=    0.1004963930D+01
 E2 =    -0.3311721663D-01 EUMP2 =    -0.11657508411330D+01
 Orbital symmetries:
       Occupied  (SGG)
       Virtual   (SGG) (SGU) (SGU) (PIU) (PIU) (SGG) (PIG) (PIG)
                 (SGG) (SGU) (DLTG) (DLTG) (SGU) (PIG) (PIG) (SGG)
                 (PIU) (PIU) (DLTU) (DLTU) (PIU) (PIU) (SGU) (SGG)
                 (PIG) (PIG) (PHIU) (PHIU) (SGU) (SGG) (PIU) (PIU)
                 (DLTU) (DLTU) (PIG) (PIG) (SGG) (DLTG) (DLTG)
                 (PHIG) (PHIG) (SGU) (SGU) (PIU) (PIU) (DLTG) (DLTG)
                 (SGG) (PIG) (PIG) (SGU) (PIU) (PIU) (DLTU) (DLTU)
                 (SGG) (SGU) (PIG) (PIG) (SGG) (PHIU) (PHIU) (DLTG)
                 (DLTG) (PIU) (PIU) (PHIG) (PHIG) (PIG) (PIG) (SGG)
                 (DLTU) (DLTU) (SGU) (PIU) (PIU) (DLTG) (DLTG)
                 (SGU) (SGG) (PIG) (PIG) (PIU) (PIU) (DLTU) (DLTU)
                 (SGU) (PIG) (PIG) (SGG) (SGU)
 Generating guess from densities on rwf.
 Convergence on wavefunction:    0.001000000000000
 Iteration     1 Dimension     3 NMult     3
 Iteration     2 Dimension     6 NMult     6
 Iteration     3 Dimension     9 NMult     9
 Iteration     4 Dimension    11 NMult    11
 ***********************************************************************
 Excited states from <AA,BB:AA,BB> singles matrix:
 ***********************************************************************
 
 Ground to excited state transition electric dipole moments (Au):
       state          X           Y           Z        Dip. S.      Osc.
         1         0.0000      0.0000     -0.9419      0.8872      0.2850
         2         0.0000      0.0000      0.0000      0.0000      0.0000
         3        -0.6752      0.7067      0.0000      0.9554      0.3357
 Ground to excited state transition velocity dipole moments (Au):
       state          X           Y           Z        Dip. S.      Osc.
         1         0.0000      0.0000      0.3930      0.1545      0.2137
         2         0.0000      0.0000      0.0000      0.0000      0.0000
         3         0.3260     -0.3413      0.0000      0.2228      0.2818
 Ground to excited state transition magnetic dipole moments (Au):
       state          X           Y           Z
         1         0.0000      0.0000      0.0000
         2         0.0000      0.0000      0.0000
         3         0.0000      0.0000      0.0000
 <0|del|b> * <b|rxdel|0> + <0|del|b> * <b|delr+rdel|0>
 Rotatory Strengths (R) in cgs (10**-40 erg-esu-cm/Gauss)
       state          XX          YY          ZZ    R(velocity)
         1         0.0000      0.0000      0.0000      0.0000
 Total R(velocity) tensor for State=          1
                 1             2             3 
      1   0.000000D+00  0.000000D+00  0.000000D+00
      2   0.000000D+00  0.000000D+00  0.000000D+00
      3   0.000000D+00  0.000000D+00  0.000000D+00
 R(velocity) tensor in inp. orien. for State=          1
                 1             2             3 
      1   0.000000D+00  0.000000D+00  0.000000D+00
      2   0.000000D+00  0.000000D+00  0.000000D+00
      3   0.000000D+00  0.000000D+00  0.000000D+00
         2         0.0000      0.0000      0.0000      0.0000
 Total R(velocity) tensor for State=          2
                 1             2             3 
      1   0.000000D+00  0.000000D+00  0.000000D+00
      2   0.000000D+00  0.000000D+00  0.000000D+00
      3   0.000000D+00  0.000000D+00  0.000000D+00
 R(velocity) tensor in inp. orien. for State=          2
                 1             2             3 
      1   0.000000D+00  0.000000D+00  0.000000D+00
      2   0.000000D+00  0.000000D+00  0.000000D+00
      3   0.000000D+00  0.000000D+00  0.000000D+00
         3         0.0000      0.0000      0.0000      0.0000
 Total R(velocity) tensor for State=          3
                 1             2             3 
      1   0.000000D+00  0.000000D+00  0.000000D+00
      2   0.000000D+00  0.000000D+00  0.000000D+00
      3   0.000000D+00  0.000000D+00  0.000000D+00
 R(velocity) tensor in inp. orien. for State=          3
                 1             2             3 
      1   0.000000D+00  0.000000D+00  0.000000D+00
      2   0.000000D+00  0.000000D+00  0.000000D+00
      3   0.000000D+00  0.000000D+00  0.000000D+00
 1/2[<0|r|b>*<b|rxdel|0> + (<0|rxdel|b>*<b|r|0>)*]
 Rotatory Strengths (R) in cgs (10**-40 erg-esu-cm/Gauss)
       state          XX          YY          ZZ     R(length)     R(au)
         1         0.0000      0.0000      0.0000      0.0000      0.0000
         2         0.0000      0.0000      0.0000      0.0000      0.0000
         3         0.0000      0.0000      0.0000      0.0000      0.0000
  1/2[<0|del|b>*<b|r|0> + (<0|r|b>*<b|del|0>)*] (Au)
       state          X           Y           Z        Dip. S.   Osc.(frdel)
         1         0.0000      0.0000     -0.3702      0.3702      0.2468
         2         0.0000      0.0000      0.0000      0.0000      0.0000
         3        -0.2202     -0.2412      0.0000      0.4613      0.3076
 Ground to excited state transition densities written to RWF  633

 Excitation energies and oscillator strengths:
 
 Excited State   1:      Singlet-SGU   13.1125 eV   94.55 nm  f=0.2850  <S**2>=0.000
       1 ->  3         0.58431
       1 ->  4        -0.38960
 This state for optimization and/or second-order correction.
 Copying the excited state density for this state as the 1-particle RhoCI density.
 
 Excited State   2:      Singlet-SGG   13.3510 eV   92.87 nm  f=0.0000  <S**2>=0.000
       1 ->  2         0.69614
       1 -> 10        -0.10752
 
 Excited state symmetry could not be determined.
 Excited State   3:      Singlet-?Sym   14.3430 eV   86.44 nm  f=0.3357  <S**2>=0.000
       1 ->  5         0.48658
       1 ->  6        -0.50929
 SavETr:  write IOETrn=   770 NScale= 10 NData=  16 NLR=1 LETran=      62.
 Variable Step   Value    
 -------- ---- -----------
     1       3    1.511781
 ---------------------------------------------------------------------------------------------------
                            Z-MATRIX (ANGSTROMS AND DEGREES)
   CD    Cent   Atom    N1       Length/X        N2       Alpha/Y        N3        Beta/Z          J
 ---------------------------------------------------------------------------------------------------
      1      1  H 
      2      2  H        1   0.800000(     1)
 ---------------------------------------------------------------------------------------------------
                         Z-Matrix orientation:                         
 ---------------------------------------------------------------------
 Center     Atomic      Atomic             Coordinates (Angstroms)
 Number     Number       Type             X           Y           Z
 ---------------------------------------------------------------------
      1          1           0        0.000000    0.000000    0.000000
      2          1           0        0.000000    0.000000    0.800000
 ---------------------------------------------------------------------
 Stoichiometry    H2
 Framework group  D*H[C*(H.H)]
 Deg. of freedom     1
 Full point group                 D*H     NOp   8
 Largest Abelian subgroup         D2H     NOp   8
 Largest concise Abelian subgroup C2      NOp   2
                         Standard orientation:                         
 ---------------------------------------------------------------------
 Center     Atomic      Atomic             Coordinates (Angstroms)
 Number     Number       Type             X           Y           Z
 ---------------------------------------------------------------------
      1          1           0        0.000000    0.000000    0.400000
      2          1           0        0.000000    0.000000   -0.400000
 ---------------------------------------------------------------------
 Rotational constants (GHZ):      0.0000000   1567.0471884   1567.0471884
 Standard basis: Aug-CC-pVQZ (5D, 7F)
 There are    19 symmetry adapted basis functions of AG  symmetry.
 There are     5 symmetry adapted basis functions of B1G symmetry.
 There are    11 symmetry adapted basis functions of B2G symmetry.
 There are    11 symmetry adapted basis functions of B3G symmetry.
 There are     5 symmetry adapted basis functions of AU  symmetry.
 There are    19 symmetry adapted basis functions of B1U symmetry.
 There are    11 symmetry adapted basis functions of B2U symmetry.
 There are    11 symmetry adapted basis functions of B3U symmetry.
 Integral buffers will be    262144 words long.
 Raffenetti 1 integral format.
 Two-electron integral symmetry is turned on.
    92 basis functions,   114 primitive gaussians,   110 cartesian basis functions
     1 alpha electrons        1 beta electrons
       nuclear repulsion energy         0.6614715107 Hartrees.
 NAtoms=    2 NActive=    2 NUniq=    1 SFac= 3.00D+00 NAtFMM=   80 NAOKFM=F Big=F
 One-electron integrals computed using PRISM.
 NBasis=    92 RedAO= T  NBF=    19     5    11    11     5    19    11    11
 NBsUse=    92 1.00D-06 NBFU=    19     5    11    11     5    19    11    11
 Initial guess read from the read-write file.
 B after Tr=     0.000000    0.000000    0.000000
         Rot=    1.000000    0.000000    0.000000    0.000000 Ang=   0.00 deg.
 Initial guess orbital symmetries:
       Occupied  (SGG)
       Virtual   (SGG) (SGU) (SGU) (PIU) (PIU) (SGG) (PIG) (PIG)
                 (SGG) (SGU) (DLTG) (DLTG) (SGU) (PIG) (PIG) (SGG)
                 (PIU) (PIU) (DLTU) (DLTU) (PIU) (PIU) (SGU) (SGG)
                 (PIG) (PIG) (PHIU) (PHIU) (SGU) (SGG) (PIU) (PIU)
                 (DLTU) (DLTU) (PIG) (PIG) (SGG) (DLTG) (DLTG)
                 (PHIG) (PHIG) (SGU) (SGU) (PIU) (PIU) (DLTG) (DLTG)
                 (SGG) (PIG) (PIG) (SGU) (PIU) (PIU) (DLTU) (DLTU)
                 (SGG) (SGU) (PIG) (PIG) (SGG) (PHIU) (PHIU) (DLTG)
                 (DLTG) (PIU) (PIU) (PHIG) (PHIG) (PIG) (PIG) (SGG)
                 (DLTU) (DLTU) (SGU) (PIU) (PIU) (DLTG) (DLTG)
                 (SGU) (SGG) (PIG) (PIG) (PIU) (PIU) (DLTU) (DLTU)
                 (SGU) (PIG) (PIG) (SGG) (SGU)
 Harris functional with IExCor=  205 diagonalized for initial guess.
 ExpMin= 2.36D-02 ExpMax= 8.26D+01 ExpMxC= 8.26D+01 IAcc=3 IRadAn=         0 AccDes= 0.00D+00
 HarFok:  IExCor=  205 AccDes= 0.00D+00 IRadAn=         0 IDoV= 1
 ScaDFX=  1.000000  1.000000  1.000000  1.000000
 FoFCou: FMM=F IPFlag=           0 FMFlag=      100000 FMFlg1=           0
         NFxFlg=           0 DoJE=T BraDBF=F KetDBF=T FulRan=T
         Omega=  0.000000  0.000000  1.000000  0.000000  0.000000 ICntrl=     500 IOpCl=  0
         NMat0=    1 NMatS0=    1 NMatT0=    0 NMatD0=    1 NMtDS0=    0 NMtDT0=    0
         I1Cent=           4 NGrid=           0.
 Petite list used in FoFCou.
 Requested convergence on RMS density matrix=1.00D-08 within 128 cycles.
 Requested convergence on MAX density matrix=1.00D-06.
 Requested convergence on             energy=1.00D-06.
 No special actions if energy rises.
 Keep R1 ints in memory in canonical form, NReq=20634486.
 SCF Done:  E(RHF) =  -1.13076400280     A.U. after    7 cycles
             Convg  =    0.5154D-08             -V/T =  2.0585
 Range of M.O.s used for correlation:     1    92
 NBasis=    92 NAE=     1 NBE=     1 NFC=     0 NFV=     0
 NROrb=     92 NOA=     1 NOB=     1 NVA=    91 NVB=    91

 **** Warning!!: The largest alpha MO coefficient is  0.53995897D+02

 Semi-Direct transformation.
 ModeAB=           4 MOrb=             1 LenV=      33243340
 LASXX=         8281 LTotXX=        8281 LenRXX=       20840
 LTotAB=       12559 MaxLAS=      310408 LenRXY=           0
 NonZer=       29121 LenScr=     1048064 LnRSAI=      310408
 LnScr1=     1048064 LExtra=           0 Total=      2427376
 MaxDsk=          -1 SrtSym=           T ITran=            3
 JobTyp=0 Pass  1:  I=   1 to   1.
 (rs|ai) integrals will be sorted in core.
 Spin components of T(2) and E(2):
     alpha-alpha T2 =       0.0000000000D+00 E2=      0.0000000000D+00
     alpha-beta  T2 =       0.1118101364D-01 E2=     -0.3350422781D-01
     beta-beta   T2 =       0.0000000000D+00 E2=      0.0000000000D+00
 ANorm=    0.1005574967D+01
 E2 =    -0.3350422781D-01 EUMP2 =    -0.11642682306130D+01
 Orbital symmetries:
       Occupied  (SGG)
       Virtual   (SGU) (SGG) (SGU) (PIU) (PIU) (SGG) (PIG) (PIG)
                 (SGG) (SGU) (DLTG) (DLTG) (SGU) (PIG) (PIG) (SGG)
                 (PIU) (PIU) (DLTU) (DLTU) (PIU) (PIU) (SGU) (SGG)
                 (PIG) (PIG) (PHIU) (PHIU) (SGU) (SGG) (SGU) (PIG)
                 (PIG) (DLTU) (DLTU) (PIU) (PIU) (DLTG) (DLTG)
                 (PHIG) (PHIG) (SGG) (SGU) (PIU) (PIU) (DLTG) (DLTG)
                 (SGG) (PIG) (PIG) (PIU) (PIU) (SGU) (DLTU) (DLTU)
                 (SGU) (SGG) (PIG) (PIG) (PHIU) (PHIU) (SGG) (DLTG)
                 (DLTG) (PIU) (PIU) (PHIG) (PHIG) (SGG) (PIG) (PIG)
                 (SGU) (DLTU) (DLTU) (DLTG) (DLTG) (PIU) (PIU)
                 (SGU) (SGG) (PIU) (PIU) (PIG) (PIG) (DLTU) (DLTU)
                 (SGU) (PIG) (PIG) (SGG) (SGU)
 Generating guess from densities on rwf.
 Convergence on wavefunction:    0.001000000000000
 Iteration     1 Dimension     3 NMult     3
 Iteration     2 Dimension     6 NMult     6
 Iteration     3 Dimension     9 NMult     9
 Iteration     4 Dimension    11 NMult    11
 Iteration     5 Dimension    12 NMult    12
 ***********************************************************************
 Excited states from <AA,BB:AA,BB> singles matrix:
 ***********************************************************************
 
 Ground to excited state transition electric dipole moments (Au):
       state          X           Y           Z        Dip. S.      Osc.
         1         0.0000      0.0000     -1.0663      1.1371      0.3405
         2         0.0000      0.0000      0.0000      0.0000      0.0000
         3        -0.7186      0.7521      0.0000      1.0820      0.3599
 Ground to excited state transition velocity dipole moments (Au):
       state          X           Y           Z        Dip. S.      Osc.
         1         0.0000      0.0000      0.4053      0.1643      0.2439
         2         0.0000      0.0000      0.0000      0.0000      0.0000
         3         0.3275     -0.3428      0.0000      0.2247      0.3003
 Ground to excited state transition magnetic dipole moments (Au):
       state          X           Y           Z
         1         0.0000      0.0000      0.0000
         2         0.0000      0.0000      0.0000
         3         0.0000      0.0000      0.0000
 <0|del|b> * <b|rxdel|0> + <0|del|b> * <b|delr+rdel|0>
 Rotatory Strengths (R) in cgs (10**-40 erg-esu-cm/Gauss)
       state          XX          YY          ZZ    R(velocity)
         1         0.0000      0.0000      0.0000      0.0000
 Total R(velocity) tensor for State=          1
                 1             2             3 
      1   0.000000D+00  0.000000D+00  0.000000D+00
      2   0.000000D+00  0.000000D+00  0.000000D+00
      3   0.000000D+00  0.000000D+00  0.000000D+00
 R(velocity) tensor in inp. orien. for State=          1
                 1             2             3 
      1   0.000000D+00  0.000000D+00  0.000000D+00
      2   0.000000D+00  0.000000D+00  0.000000D+00
      3   0.000000D+00  0.000000D+00  0.000000D+00
         2         0.0000      0.0000      0.0000      0.0000
 Total R(velocity) tensor for State=          2
                 1             2             3 
      1   0.000000D+00  0.000000D+00  0.000000D+00
      2   0.000000D+00  0.000000D+00  0.000000D+00
      3   0.000000D+00  0.000000D+00  0.000000D+00
 R(velocity) tensor in inp. orien. for State=          2
                 1             2             3 
      1   0.000000D+00  0.000000D+00  0.000000D+00
      2   0.000000D+00  0.000000D+00  0.000000D+00
      3   0.000000D+00  0.000000D+00  0.000000D+00
         3         0.0000      0.0000      0.0000      0.0000
 Total R(velocity) tensor for State=          3
                 1             2             3 
      1   0.000000D+00  0.000000D+00  0.000000D+00
      2   0.000000D+00  0.000000D+00  0.000000D+00
      3   0.000000D+00  0.000000D+00  0.000000D+00
 R(velocity) tensor in inp. orien. for State=          3
                 1             2             3 
      1   0.000000D+00  0.000000D+00  0.000000D+00
      2   0.000000D+00  0.000000D+00  0.000000D+00
      3   0.000000D+00  0.000000D+00  0.000000D+00
 1/2[<0|r|b>*<b|rxdel|0> + (<0|rxdel|b>*<b|r|0>)*]
 Rotatory Strengths (R) in cgs (10**-40 erg-esu-cm/Gauss)
       state          XX          YY          ZZ     R(length)     R(au)
         1         0.0000      0.0000      0.0000      0.0000      0.0000
         2         0.0000      0.0000      0.0000      0.0000      0.0000
         3         0.0000      0.0000      0.0000      0.0000      0.0000
  1/2[<0|del|b>*<b|r|0> + (<0|r|b>*<b|del|0>)*] (Au)
       state          X           Y           Z        Dip. S.   Osc.(frdel)
         1         0.0000      0.0000     -0.4322      0.4322      0.2882
         2         0.0000      0.0000      0.0000      0.0000      0.0000
         3        -0.2353     -0.2578      0.0000      0.4931      0.3288
 Ground to excited state transition densities written to RWF  633

 Excitation energies and oscillator strengths:
 
 Excited State   1:      Singlet-SGU   12.2234 eV  101.43 nm  f=0.3405  <S**2>=0.000
       1 ->  2         0.58570
       1 ->  4        -0.38984
 This state for optimization and/or second-order correction.
 Copying the excited state density for this state as the 1-particle RhoCI density.
 
 Excited State   2:      Singlet-SGG   12.6067 eV   98.35 nm  f=0.0000  <S**2>=0.000
       1 ->  3         0.69772
       1 -> 10        -0.10115
 
 Excited state symmetry could not be determined.
 Excited State   3:      Singlet-?Sym   13.5745 eV   91.34 nm  f=0.3599  <S**2>=0.000
       1 ->  5        -0.50957
       1 ->  6         0.48685
 SavETr:  write IOETrn=   770 NScale= 10 NData=  16 NLR=1 LETran=      62.
 Variable Step   Value    
 -------- ---- -----------
     1       4    1.700754
 ---------------------------------------------------------------------------------------------------
                            Z-MATRIX (ANGSTROMS AND DEGREES)
   CD    Cent   Atom    N1       Length/X        N2       Alpha/Y        N3        Beta/Z          J
 ---------------------------------------------------------------------------------------------------
      1      1  H 
      2      2  H        1   0.900000(     1)
 ---------------------------------------------------------------------------------------------------
                         Z-Matrix orientation:                         
 ---------------------------------------------------------------------
 Center     Atomic      Atomic             Coordinates (Angstroms)
 Number     Number       Type             X           Y           Z
 ---------------------------------------------------------------------
      1          1           0        0.000000    0.000000    0.000000
      2          1           0        0.000000    0.000000    0.900000
 ---------------------------------------------------------------------
 Stoichiometry    H2
 Framework group  D*H[C*(H.H)]
 Deg. of freedom     1
 Full point group                 D*H     NOp   8
 Largest Abelian subgroup         D2H     NOp   8
 Largest concise Abelian subgroup C2      NOp   2
                         Standard orientation:                         
 ---------------------------------------------------------------------
 Center     Atomic      Atomic             Coordinates (Angstroms)
 Number     Number       Type             X           Y           Z
 ---------------------------------------------------------------------
      1          1           0        0.000000    0.000000    0.450000
      2          1           0        0.000000    0.000000   -0.450000
 ---------------------------------------------------------------------
 Rotational constants (GHZ):      0.0000000   1238.1607414   1238.1607414
 Standard basis: Aug-CC-pVQZ (5D, 7F)
 There are    19 symmetry adapted basis functions of AG  symmetry.
 There are     5 symmetry adapted basis functions of B1G symmetry.
 There are    11 symmetry adapted basis functions of B2G symmetry.
 There are    11 symmetry adapted basis functions of B3G symmetry.
 There are     5 symmetry adapted basis functions of AU  symmetry.
 There are    19 symmetry adapted basis functions of B1U symmetry.
 There are    11 symmetry adapted basis functions of B2U symmetry.
 There are    11 symmetry adapted basis functions of B3U symmetry.
 Integral buffers will be    262144 words long.
 Raffenetti 1 integral format.
 Two-electron integral symmetry is turned on.
    92 basis functions,   114 primitive gaussians,   110 cartesian basis functions
     1 alpha electrons        1 beta electrons
       nuclear repulsion energy         0.5879746762 Hartrees.
 NAtoms=    2 NActive=    2 NUniq=    1 SFac= 3.00D+00 NAtFMM=   80 NAOKFM=F Big=F
 One-electron integrals computed using PRISM.
 NBasis=    92 RedAO= T  NBF=    19     5    11    11     5    19    11    11
 NBsUse=    92 1.00D-06 NBFU=    19     5    11    11     5    19    11    11
 Initial guess read from the read-write file.
 B after Tr=     0.000000    0.000000    0.000000
         Rot=    1.000000    0.000000    0.000000    0.000000 Ang=   0.00 deg.
 Initial guess orbital symmetries:
       Occupied  (SGG)
       Virtual   (SGU) (SGG) (SGU) (PIU) (PIU) (SGG) (PIG) (PIG)
                 (SGG) (SGU) (DLTG) (DLTG) (SGU) (PIG) (PIG) (SGG)
                 (PIU) (PIU) (DLTU) (DLTU) (PIU) (PIU) (SGU) (SGG)
                 (PIG) (PIG) (PHIU) (PHIU) (SGU) (SGG) (SGU) (PIG)
                 (PIG) (DLTU) (DLTU) (PIU) (PIU) (DLTG) (DLTG)
                 (PHIG) (PHIG) (SGG) (SGU) (PIU) (PIU) (DLTG) (DLTG)
                 (SGG) (PIG) (PIG) (PIU) (PIU) (SGU) (DLTU) (DLTU)
                 (SGU) (SGG) (PIG) (PIG) (PHIU) (PHIU) (SGG) (DLTG)
                 (DLTG) (PIU) (PIU) (PHIG) (PHIG) (SGG) (PIG) (PIG)
                 (SGU) (DLTU) (DLTU) (DLTG) (DLTG) (PIU) (PIU)
                 (SGU) (SGG) (PIU) (PIU) (PIG) (PIG) (DLTU) (DLTU)
                 (SGU) (PIG) (PIG) (SGG) (SGU)
 Harris functional with IExCor=  205 diagonalized for initial guess.
 ExpMin= 2.36D-02 ExpMax= 8.26D+01 ExpMxC= 8.26D+01 IAcc=3 IRadAn=         0 AccDes= 0.00D+00
 HarFok:  IExCor=  205 AccDes= 0.00D+00 IRadAn=         0 IDoV= 1
 ScaDFX=  1.000000  1.000000  1.000000  1.000000
 FoFCou: FMM=F IPFlag=           0 FMFlag=      100000 FMFlg1=           0
         NFxFlg=           0 DoJE=T BraDBF=F KetDBF=T FulRan=T
         Omega=  0.000000  0.000000  1.000000  0.000000  0.000000 ICntrl=     500 IOpCl=  0
         NMat0=    1 NMatS0=    1 NMatT0=    0 NMatD0=    1 NMtDS0=    0 NMtDT0=    0
         I1Cent=           4 NGrid=           0.
 Petite list used in FoFCou.
 Requested convergence on RMS density matrix=1.00D-08 within 128 cycles.
 Requested convergence on MAX density matrix=1.00D-06.
 Requested convergence on             energy=1.00D-06.
 No special actions if energy rises.
 Keep R1 ints in memory in canonical form, NReq=20634486.
 SCF Done:  E(RHF) =  -1.11916374356     A.U. after    7 cycles
             Convg  =    0.2781D-08             -V/T =  2.1346
 Range of M.O.s used for correlation:     1    92
 NBasis=    92 NAE=     1 NBE=     1 NFC=     0 NFV=     0
 NROrb=     92 NOA=     1 NOB=     1 NVA=    91 NVB=    91

 **** Warning!!: The largest alpha MO coefficient is  0.37431254D+02

 Semi-Direct transformation.
 ModeAB=           4 MOrb=             1 LenV=      33243368
 LASXX=         8281 LTotXX=        8281 LenRXX=       20840
 LTotAB=       12559 MaxLAS=      310408 LenRXY=           0
 NonZer=       29121 LenScr=     1048064 LnRSAI=      310408
 LnScr1=     1048064 LExtra=           0 Total=      2427376
 MaxDsk=          -1 SrtSym=           T ITran=            3
 JobTyp=0 Pass  1:  I=   1 to   1.
 (rs|ai) integrals will be sorted in core.
 Spin components of T(2) and E(2):
     alpha-alpha T2 =       0.0000000000D+00 E2=      0.0000000000D+00
     alpha-beta  T2 =       0.1262313931D-01 E2=     -0.3407996855D-01
     beta-beta   T2 =       0.0000000000D+00 E2=      0.0000000000D+00
 ANorm=    0.1006291776D+01
 E2 =    -0.3407996855D-01 EUMP2 =    -0.11532437121046D+01
 Orbital symmetries:
       Occupied  (SGG)
       Virtual   (SGU) (SGG) (SGU) (PIU) (PIU) (SGG) (PIG) (PIG)
                 (SGU) (SGG) (DLTG) (DLTG) (SGU) (PIG) (PIG) (SGG)
                 (PIU) (PIU) (DLTU) (DLTU) (PIU) (PIU) (SGU) (SGG)
                 (PIG) (PIG) (PHIU) (PHIU) (SGU) (SGG) (SGU) (PIG)
                 (PIG) (DLTG) (DLTG) (DLTU) (DLTU) (PHIG) (PHIG)
                 (PIU) (PIU) (SGG) (PIU) (PIU) (SGU) (DLTG) (DLTG)
                 (SGG) (PIG) (PIG) (PIU) (PIU) (SGU) (DLTU) (DLTU)
                 (SGU) (SGG) (PIG) (PIG) (DLTG) (DLTG) (PHIU) (PHIU)
                 (SGG) (PIU) (PIU) (PHIG) (PHIG) (SGU) (SGG) (DLTU)
                 (DLTU) (PIG) (PIG) (PIU) (PIU) (DLTG) (DLTG) (SGU)
                 (PIU) (PIU) (SGG) (PIG) (PIG) (DLTU) (DLTU) (SGU)
                 (PIG) (PIG) (SGG) (SGU)
 Generating guess from densities on rwf.
 Convergence on wavefunction:    0.001000000000000
 Iteration     1 Dimension     3 NMult     3
 Iteration     2 Dimension     6 NMult     6
 Iteration     3 Dimension     9 NMult     9
 Iteration     4 Dimension    11 NMult    11
 Iteration     5 Dimension    12 NMult    12
 ***********************************************************************
 Excited states from <AA,BB:AA,BB> singles matrix:
 ***********************************************************************
 
 Ground to excited state transition electric dipole moments (Au):
       state          X           Y           Z        Dip. S.      Osc.
         1         0.0000      0.0000     -1.1987      1.4370      0.4022
         2         0.0000      0.0000      0.0000      0.0000      0.0000
         3        -0.7599      0.7954      0.0000      1.2100      0.3826
 Ground to excited state transition velocity dipole moments (Au):
       state          X           Y           Z        Dip. S.      Osc.
         1         0.0000      0.0000      0.4149      0.1721      0.2733
         2         0.0000      0.0000      0.0000      0.0000      0.0000
         3         0.3284     -0.3437      0.0000      0.2260      0.3176
 Ground to excited state transition magnetic dipole moments (Au):
       state          X           Y           Z
         1         0.0000      0.0000      0.0000
         2         0.0000      0.0000      0.0000
         3         0.0000      0.0000      0.0000
 <0|del|b> * <b|rxdel|0> + <0|del|b> * <b|delr+rdel|0>
 Rotatory Strengths (R) in cgs (10**-40 erg-esu-cm/Gauss)
       state          XX          YY          ZZ    R(velocity)
         1         0.0000      0.0000      0.0000      0.0000
 Total R(velocity) tensor for State=          1
                 1             2             3 
      1   0.000000D+00  0.000000D+00  0.000000D+00
      2   0.000000D+00  0.000000D+00  0.000000D+00
      3   0.000000D+00  0.000000D+00  0.000000D+00
 R(velocity) tensor in inp. orien. for State=          1
                 1             2             3 
      1   0.000000D+00  0.000000D+00  0.000000D+00
      2   0.000000D+00  0.000000D+00  0.000000D+00
      3   0.000000D+00  0.000000D+00  0.000000D+00
         2         0.0000      0.0000      0.0000      0.0000
 Total R(velocity) tensor for State=          2
                 1             2             3 
      1   0.000000D+00  0.000000D+00  0.000000D+00
      2   0.000000D+00  0.000000D+00  0.000000D+00
      3   0.000000D+00  0.000000D+00  0.000000D+00
 R(velocity) tensor in inp. orien. for State=          2
                 1             2             3 
      1   0.000000D+00  0.000000D+00  0.000000D+00
      2   0.000000D+00  0.000000D+00  0.000000D+00
      3   0.000000D+00  0.000000D+00  0.000000D+00
         3         0.0000      0.0000      0.0000      0.0000
 Total R(velocity) tensor for State=          3
                 1             2             3 
      1   0.000000D+00  0.000000D+00  0.000000D+00
      2   0.000000D+00  0.000000D+00  0.000000D+00
      3   0.000000D+00  0.000000D+00  0.000000D+00
 R(velocity) tensor in inp. orien. for State=          3
                 1             2             3 
      1   0.000000D+00  0.000000D+00  0.000000D+00
      2   0.000000D+00  0.000000D+00  0.000000D+00
      3   0.000000D+00  0.000000D+00  0.000000D+00
 1/2[<0|r|b>*<b|rxdel|0> + (<0|rxdel|b>*<b|r|0>)*]
 Rotatory Strengths (R) in cgs (10**-40 erg-esu-cm/Gauss)
       state          XX          YY          ZZ     R(length)     R(au)
         1         0.0000      0.0000      0.0000      0.0000      0.0000
         2         0.0000      0.0000      0.0000      0.0000      0.0000
         3         0.0000      0.0000      0.0000      0.0000      0.0000
  1/2[<0|del|b>*<b|r|0> + (<0|r|b>*<b|del|0>)*] (Au)
       state          X           Y           Z        Dip. S.   Osc.(frdel)
         1         0.0000      0.0000     -0.4973      0.4973      0.3315
         2         0.0000      0.0000      0.0000      0.0000      0.0000
         3        -0.2495     -0.2734      0.0000      0.5229      0.3486
 Ground to excited state transition densities written to RWF  633

 Excitation energies and oscillator strengths:
 
 Excited State   1:      Singlet-SGU   11.4239 eV  108.53 nm  f=0.4022  <S**2>=0.000
       1 ->  2         0.59015
       1 ->  4        -0.38546
 This state for optimization and/or second-order correction.
 Copying the excited state density for this state as the 1-particle RhoCI density.
 
 Excited State   2:      Singlet-SGG   11.9565 eV  103.70 nm  f=0.0000  <S**2>=0.000
       1 ->  3         0.69900
 
 Excited state symmetry could not be determined.
 Excited State   3:      Singlet-?Sym   12.9056 eV   96.07 nm  f=0.3826  <S**2>=0.000
       1 ->  5         0.48708
       1 ->  6        -0.50981
 SavETr:  write IOETrn=   770 NScale= 10 NData=  16 NLR=1 LETran=      62.
 Variable Step   Value    
 -------- ---- -----------
     1       5    1.889726
 ---------------------------------------------------------------------------------------------------
                            Z-MATRIX (ANGSTROMS AND DEGREES)
   CD    Cent   Atom    N1       Length/X        N2       Alpha/Y        N3        Beta/Z          J
 ---------------------------------------------------------------------------------------------------
      1      1  H 
      2      2  H        1   1.000000(     1)
 ---------------------------------------------------------------------------------------------------
                         Z-Matrix orientation:                         
 ---------------------------------------------------------------------
 Center     Atomic      Atomic             Coordinates (Angstroms)
 Number     Number       Type             X           Y           Z
 ---------------------------------------------------------------------
      1          1           0        0.000000    0.000000    0.000000
      2          1           0        0.000000    0.000000    1.000000
 ---------------------------------------------------------------------
 Stoichiometry    H2
 Framework group  D*H[C*(H.H)]
 Deg. of freedom     1
 Full point group                 D*H     NOp   8
 Largest Abelian subgroup         D2H     NOp   8
 Largest concise Abelian subgroup C2      NOp   2
                         Standard orientation:                         
 ---------------------------------------------------------------------
 Center     Atomic      Atomic             Coordinates (Angstroms)
 Number     Number       Type             X           Y           Z
 ---------------------------------------------------------------------
      1          1           0        0.000000    0.000000    0.500000
      2          1           0        0.000000    0.000000   -0.500000
 ---------------------------------------------------------------------
 Rotational constants (GHZ):      0.0000000   1002.9102006   1002.9102006
 Standard basis: Aug-CC-pVQZ (5D, 7F)
 There are    19 symmetry adapted basis functions of AG  symmetry.
 There are     5 symmetry adapted basis functions of B1G symmetry.
 There are    11 symmetry adapted basis functions of B2G symmetry.
 There are    11 symmetry adapted basis functions of B3G symmetry.
 There are     5 symmetry adapted basis functions of AU  symmetry.
 There are    19 symmetry adapted basis functions of B1U symmetry.
 There are    11 symmetry adapted basis functions of B2U symmetry.
 There are    11 symmetry adapted basis functions of B3U symmetry.
 Integral buffers will be    262144 words long.
 Raffenetti 1 integral format.
 Two-electron integral symmetry is turned on.
    92 basis functions,   114 primitive gaussians,   110 cartesian basis functions
     1 alpha electrons        1 beta electrons
       nuclear repulsion energy         0.5291772086 Hartrees.
 NAtoms=    2 NActive=    2 NUniq=    1 SFac= 3.00D+00 NAtFMM=   80 NAOKFM=F Big=F
 One-electron integrals computed using PRISM.
 NBasis=    92 RedAO= T  NBF=    19     5    11    11     5    19    11    11
 NBsUse=    92 1.00D-06 NBFU=    19     5    11    11     5    19    11    11
 Initial guess read from the read-write file.
 B after Tr=     0.000000    0.000000    0.000000
         Rot=    1.000000    0.000000    0.000000    0.000000 Ang=   0.00 deg.
 Initial guess orbital symmetries:
       Occupied  (SGG)
       Virtual   (SGU) (SGG) (SGU) (PIU) (PIU) (SGG) (PIG) (PIG)
                 (SGU) (SGG) (DLTG) (DLTG) (SGU) (PIG) (PIG) (SGG)
                 (PIU) (PIU) (DLTU) (DLTU) (PIU) (PIU) (SGU) (SGG)
                 (PIG) (PIG) (PHIU) (PHIU) (SGU) (SGG) (SGU) (PIG)
                 (PIG) (DLTG) (DLTG) (DLTU) (DLTU) (PHIG) (PHIG)
                 (PIU) (PIU) (SGG) (PIU) (PIU) (SGU) (DLTG) (DLTG)
                 (SGG) (PIG) (PIG) (PIU) (PIU) (SGU) (DLTU) (DLTU)
                 (SGU) (SGG) (PIG) (PIG) (DLTG) (DLTG) (PHIU) (PHIU)
                 (SGG) (PIU) (PIU) (PHIG) (PHIG) (SGU) (SGG) (DLTU)
                 (DLTU) (PIG) (PIG) (PIU) (PIU) (DLTG) (DLTG) (SGU)
                 (PIU) (PIU) (SGG) (PIG) (PIG) (DLTU) (DLTU) (SGU)
                 (PIG) (PIG) (SGG) (SGU)
 Harris functional with IExCor=  205 diagonalized for initial guess.
 ExpMin= 2.36D-02 ExpMax= 8.26D+01 ExpMxC= 8.26D+01 IAcc=3 IRadAn=         0 AccDes= 0.00D+00
 HarFok:  IExCor=  205 AccDes= 0.00D+00 IRadAn=         0 IDoV= 1
 ScaDFX=  1.000000  1.000000  1.000000  1.000000
 FoFCou: FMM=F IPFlag=           0 FMFlag=      100000 FMFlg1=           0
         NFxFlg=           0 DoJE=T BraDBF=F KetDBF=T FulRan=T
         Omega=  0.000000  0.000000  1.000000  0.000000  0.000000 ICntrl=     500 IOpCl=  0
         NMat0=    1 NMatS0=    1 NMatT0=    0 NMatD0=    1 NMtDS0=    0 NMtDT0=    0
         I1Cent=           4 NGrid=           0.
 Petite list used in FoFCou.
 Requested convergence on RMS density matrix=1.00D-08 within 128 cycles.
 Requested convergence on MAX density matrix=1.00D-06.
 Requested convergence on             energy=1.00D-06.
 No special actions if energy rises.
 Keep R1 ints in memory in canonical form, NReq=20634486.
 SCF Done:  E(RHF) =  -1.10248804036     A.U. after    6 cycles
             Convg  =    0.4259D-08             -V/T =  2.1985
 Range of M.O.s used for correlation:     1    92
 NBasis=    92 NAE=     1 NBE=     1 NFC=     0 NFV=     0
 NROrb=     92 NOA=     1 NOB=     1 NVA=    91 NVB=    91

 **** Warning!!: The largest alpha MO coefficient is  0.30636942D+02

 Semi-Direct transformation.
 ModeAB=           4 MOrb=             1 LenV=      33243368
 LASXX=         8281 LTotXX=        8281 LenRXX=       20840
 LTotAB=       12559 MaxLAS=      310408 LenRXY=           0
 NonZer=       29121 LenScr=     1048064 LnRSAI=      310408
 LnScr1=     1048064 LExtra=           0 Total=      2427376
 MaxDsk=          -1 SrtSym=           T ITran=            3
 JobTyp=0 Pass  1:  I=   1 to   1.
 (rs|ai) integrals will be sorted in core.
 Spin components of T(2) and E(2):
     alpha-alpha T2 =       0.0000000000D+00 E2=      0.0000000000D+00
     alpha-beta  T2 =       0.1431328480D-01 E2=     -0.3484318476D-01
     beta-beta   T2 =       0.0000000000D+00 E2=      0.0000000000D+00
 ANorm=    0.1007131215D+01
 E2 =    -0.3484318476D-01 EUMP2 =    -0.11373312251243D+01
 Orbital symmetries:
       Occupied  (SGG)
       Virtual   (SGU) (SGG) (SGU) (PIU) (PIU) (SGG) (PIG) (PIG)
                 (SGU) (SGG) (DLTG) (DLTG) (SGU) (PIG) (PIG) (SGG)
                 (PIU) (PIU) (DLTU) (DLTU) (SGU) (PIU) (PIU) (SGG)
                 (PIG) (PIG) (PHIU) (PHIU) (SGG) (SGU) (SGU) (PIG)
                 (PIG) (DLTG) (DLTG) (PHIG) (PHIG) (DLTU) (DLTU)
                 (PIU) (PIU) (SGG) (PIU) (PIU) (SGU) (DLTG) (DLTG)
                 (SGG) (PIU) (PIU) (PIG) (PIG) (DLTU) (DLTU) (SGU)
                 (SGG) (SGU) (PIG) (PIG) (DLTG) (DLTG) (PHIU) (PHIU)
                 (PIU) (PIU) (PHIG) (PHIG) (SGG) (SGU) (DLTU) (DLTU)
                 (SGG) (PIG) (PIG) (PIU) (PIU) (SGU) (DLTG) (DLTG)
                 (PIU) (PIU) (DLTU) (DLTU) (SGG) (PIG) (PIG) (SGU)
                 (PIG) (PIG) (SGG) (SGU)
 Generating guess from densities on rwf.
 Convergence on wavefunction:    0.001000000000000
 Iteration     1 Dimension     3 NMult     3
 Iteration     2 Dimension     6 NMult     6
 Iteration     3 Dimension     9 NMult     9
 Iteration     4 Dimension    11 NMult    11
 Iteration     5 Dimension    12 NMult    12
 ***********************************************************************
 Excited states from <AA,BB:AA,BB> singles matrix:
 ***********************************************************************
 
 Ground to excited state transition electric dipole moments (Au):
       state          X           Y           Z        Dip. S.      Osc.
         1         0.0000      0.0000     -1.3370      1.7877      0.4687
         2         0.0000      0.0000      0.0000      0.0000      0.0000
         3        -0.7991      0.8364      0.0000      1.3380      0.4039
 Ground to excited state transition velocity dipole moments (Au):
       state          X           Y           Z        Dip. S.      Osc.
         1         0.0000      0.0000      0.4209      0.1771      0.3003
         2         0.0000      0.0000      0.0000      0.0000      0.0000
         3         0.3289     -0.3442      0.0000      0.2267      0.3337
 Ground to excited state transition magnetic dipole moments (Au):
       state          X           Y           Z
         1         0.0000      0.0000      0.0000
         2         0.0000      0.0000      0.0000
         3         0.0000      0.0000      0.0000
 <0|del|b> * <b|rxdel|0> + <0|del|b> * <b|delr+rdel|0>
 Rotatory Strengths (R) in cgs (10**-40 erg-esu-cm/Gauss)
       state          XX          YY          ZZ    R(velocity)
[...]
 Excited states from <AA,BB:AA,BB> singles matrix:
 ***********************************************************************
 
 Ground to excited state transition electric dipole moments (Au):
       state          X           Y           Z        Dip. S.      Osc.
         1         0.0000      0.0000     -3.7712     14.2219      1.8143
         2         0.0000      0.0000      0.0000      0.0000      0.0000
         3        -1.1528      1.2066      0.0000      2.7847      0.5554
 Ground to excited state transition velocity dipole moments (Au):
       state          X           Y           Z        Dip. S.      Osc.
         1         0.0000      0.0000      0.1861      0.0346      0.1207
         2         0.0000      0.0000      0.0000      0.0000      0.0000
         3         0.3086     -0.3230      0.0000      0.1996      0.4447
 Ground to excited state transition magnetic dipole moments (Au):
       state          X           Y           Z
         1         0.0000      0.0000      0.0000
         2         0.0000      0.0000      0.0000
         3         0.0000      0.0000      0.0000
 <0|del|b> * <b|rxdel|0> + <0|del|b> * <b|delr+rdel|0>
 Rotatory Strengths (R) in cgs (10**-40 erg-esu-cm/Gauss)
       state          XX          YY          ZZ    R(velocity)
         1         0.0000      0.0000      0.0000      0.0000
 Total R(velocity) tensor for State=          1
                 1             2             3 
      1   0.000000D+00  0.000000D+00  0.000000D+00
      2   0.000000D+00  0.000000D+00  0.000000D+00
      3   0.000000D+00  0.000000D+00  0.000000D+00
 R(velocity) tensor in inp. orien. for State=          1
                 1             2             3 
      1   0.000000D+00  0.000000D+00  0.000000D+00
      2   0.000000D+00  0.000000D+00  0.000000D+00
      3   0.000000D+00  0.000000D+00  0.000000D+00
         2         0.0000      0.0000      0.0000      0.0000
 Total R(velocity) tensor for State=          2
                 1             2             3 
      1   0.000000D+00  0.000000D+00  0.000000D+00
      2   0.000000D+00  0.000000D+00  0.000000D+00
      3   0.000000D+00  0.000000D+00  0.000000D+00
 R(velocity) tensor in inp. orien. for State=          2
                 1             2             3 
      1   0.000000D+00  0.000000D+00  0.000000D+00
      2   0.000000D+00  0.000000D+00  0.000000D+00
      3   0.000000D+00  0.000000D+00  0.000000D+00
         3         0.0000      0.0000      0.0000      0.0000
 Total R(velocity) tensor for State=          3
                 1             2             3 
      1   0.000000D+00  0.000000D+00  0.000000D+00
      2   0.000000D+00  0.000000D+00  0.000000D+00
      3   0.000000D+00  0.000000D+00  0.000000D+00
 R(velocity) tensor in inp. orien. for State=          3
                 1             2             3 
      1   0.000000D+00  0.000000D+00  0.000000D+00
      2   0.000000D+00  0.000000D+00  0.000000D+00
      3   0.000000D+00  0.000000D+00  0.000000D+00
 1/2[<0|r|b>*<b|rxdel|0> + (<0|rxdel|b>*<b|r|0>)*]
 Rotatory Strengths (R) in cgs (10**-40 erg-esu-cm/Gauss)
       state          XX          YY          ZZ     R(length)     R(au)
         1         0.0000      0.0000      0.0000      0.0000      0.0000
         2         0.0000      0.0000      0.0000      0.0000      0.0000
         3         0.0000      0.0000      0.0000      0.0000      0.0000
  1/2[<0|del|b>*<b|r|0> + (<0|r|b>*<b|del|0>)*] (Au)
       state          X           Y           Z        Dip. S.   Osc.(frdel)
         1         0.0000      0.0000     -0.7019      0.7019      0.4679
         2         0.0000      0.0000      0.0000      0.0000      0.0000
         3        -0.3557     -0.3897      0.0000      0.7455      0.4970
 Ground to excited state transition densities written to RWF  633

 Excitation energies and oscillator strengths:
 
 Excited State   1:      Singlet-SGU    5.2070 eV  238.11 nm  f=1.8143  <S**2>=0.000
       1 ->  2         0.67779
       1 ->  4         0.18052
 This state for optimization and/or second-order correction.
 Copying the excited state density for this state as the 1-particle RhoCI density.
 
 Excited State   2:      Singlet-SGG    7.1180 eV  174.18 nm  f=0.0000  <S**2>=0.000
       1 ->  3         0.70595
 
 Excited state symmetry could not be determined.
 Excited State   3:      Singlet-?Sym    8.1402 eV  152.31 nm  f=0.5554  <S**2>=0.000
       1 ->  5         0.48802
       1 ->  6        -0.51079
 SavETr:  write IOETrn=   770 NScale= 10 NData=  16 NLR=1 LETran=      62.
 Variable Step   Value    
 -------- ---- -----------
     1      25    5.669178
 ---------------------------------------------------------------------------------------------------
                            Z-MATRIX (ANGSTROMS AND DEGREES)
   CD    Cent   Atom    N1       Length/X        N2       Alpha/Y        N3        Beta/Z          J
 ---------------------------------------------------------------------------------------------------
      1      1  H 
      2      2  H        1   3.000000(     1)
 ---------------------------------------------------------------------------------------------------
                         Z-Matrix orientation:                         
 ---------------------------------------------------------------------
 Center     Atomic      Atomic             Coordinates (Angstroms)
 Number     Number       Type             X           Y           Z
 ---------------------------------------------------------------------
      1          1           0        0.000000    0.000000    0.000000
      2          1           0        0.000000    0.000000    3.000000
 ---------------------------------------------------------------------
 Stoichiometry    H2
 Framework group  D*H[C*(H.H)]
 Deg. of freedom     1
 Full point group                 D*H     NOp   8
 Largest Abelian subgroup         D2H     NOp   8
 Largest concise Abelian subgroup C2      NOp   2
                         Standard orientation:                         
 ---------------------------------------------------------------------
 Center     Atomic      Atomic             Coordinates (Angstroms)
 Number     Number       Type             X           Y           Z
 ---------------------------------------------------------------------
      1          1           0        0.000000    0.000000    1.500000
      2          1           0        0.000000    0.000000   -1.500000
 ---------------------------------------------------------------------
 Rotational constants (GHZ):      0.0000000    111.4344667    111.4344667
 Standard basis: Aug-CC-pVQZ (5D, 7F)
 There are    19 symmetry adapted basis functions of AG  symmetry.
 There are     5 symmetry adapted basis functions of B1G symmetry.
 There are    11 symmetry adapted basis functions of B2G symmetry.
 There are    11 symmetry adapted basis functions of B3G symmetry.
 There are     5 symmetry adapted basis functions of AU  symmetry.
 There are    19 symmetry adapted basis functions of B1U symmetry.
 There are    11 symmetry adapted basis functions of B2U symmetry.
 There are    11 symmetry adapted basis functions of B3U symmetry.
 Integral buffers will be    262144 words long.
 Raffenetti 1 integral format.
 Two-electron integral symmetry is turned on.
    92 basis functions,   114 primitive gaussians,   110 cartesian basis functions
     1 alpha electrons        1 beta electrons
       nuclear repulsion energy         0.1763924029 Hartrees.
 NAtoms=    2 NActive=    2 NUniq=    1 SFac= 3.00D+00 NAtFMM=   80 NAOKFM=F Big=F
 One-electron integrals computed using PRISM.
 NBasis=    92 RedAO= T  NBF=    19     5    11    11     5    19    11    11
 NBsUse=    92 1.00D-06 NBFU=    19     5    11    11     5    19    11    11
 Initial guess read from the read-write file.
 B after Tr=     0.000000    0.000000    0.000000
         Rot=    1.000000    0.000000    0.000000    0.000000 Ang=   0.00 deg.
 Initial guess orbital symmetries:
       Occupied  (SGG)
       Virtual   (SGU) (SGG) (SGU) (PIU) (PIU) (SGG) (PIG) (PIG)
                 (SGU) (SGG) (SGU) (PIU) (PIU) (DLTG) (DLTG) (SGG)
                 (DLTU) (DLTU) (PIU) (PIU) (PIG) (PIG) (SGU) (PIG)
                 (PIG) (SGG) (SGU) (PIU) (PIU) (SGG) (DLTG) (DLTG)
                 (PHIU) (PHIU) (PHIG) (PHIG) (SGU) (DLTU) (DLTU)
                 (SGG) (PIG) (PIG) (SGU) (DLTG) (DLTG) (PIU) (PIU)
                 (DLTU) (DLTU) (SGG) (PIU) (PIU) (SGU) (PIG) (PIG)
                 (PIG) (PIG) (SGG) (SGU) (PIU) (PIU) (DLTG) (DLTG)
                 (PHIU) (PHIU) (PHIG) (PHIG) (SGG) (DLTU) (DLTU)
                 (PIG) (PIG) (SGU) (SGG) (SGU) (PIU) (PIU) (SGG)
                 (PIG) (PIG) (SGU) (DLTG) (DLTG) (PIU) (PIU) (DLTU)
                 (DLTU) (PIG) (PIG) (SGG) (SGU)
 Harris functional with IExCor=  205 diagonalized for initial guess.
 ExpMin= 2.36D-02 ExpMax= 8.26D+01 ExpMxC= 8.26D+01 IAcc=3 IRadAn=         0 AccDes= 0.00D+00
 HarFok:  IExCor=  205 AccDes= 0.00D+00 IRadAn=         0 IDoV= 1
 ScaDFX=  1.000000  1.000000  1.000000  1.000000
 FoFCou: FMM=F IPFlag=           0 FMFlag=      100000 FMFlg1=           0
         NFxFlg=           0 DoJE=T BraDBF=F KetDBF=T FulRan=T
         Omega=  0.000000  0.000000  1.000000  0.000000  0.000000 ICntrl=     500 IOpCl=  0
         NMat0=    1 NMatS0=    1 NMatT0=    0 NMatD0=    1 NMtDS0=    0 NMtDT0=    0
         I1Cent=           4 NGrid=           0.
 Petite list used in FoFCou.
 Requested convergence on RMS density matrix=1.00D-08 within 128 cycles.
 Requested convergence on MAX density matrix=1.00D-06.
 Requested convergence on             energy=1.00D-06.
 No special actions if energy rises.
 Keep R1 ints in memory in canonical form, NReq=20634486.
 SCF Done:  E(RHF) = -0.834632647288     A.U. after    6 cycles
             Convg  =    0.7335D-09             -V/T =  2.2765
 Range of M.O.s used for correlation:     1    92
 NBasis=    92 NAE=     1 NBE=     1 NFC=     0 NFV=     0
 NROrb=     92 NOA=     1 NOB=     1 NVA=    91 NVB=    91
 Semi-Direct transformation.
 ModeAB=           4 MOrb=             1 LenV=      33243781
 LASXX=         8281 LTotXX=        8281 LenRXX=       20840
 LTotAB=       12559 MaxLAS=      308660 LenRXY=           0
 NonZer=       29121 LenScr=     1048064 LnRSAI=      308660
 LnScr1=     1048064 LExtra=           0 Total=      2425628
 MaxDsk=          -1 SrtSym=           T ITran=            3
 JobTyp=0 Pass  1:  I=   1 to   1.
 (rs|ai) integrals will be sorted in core.
 Spin components of T(2) and E(2):
     alpha-alpha T2 =       0.0000000000D+00 E2=      0.0000000000D+00
     alpha-beta  T2 =       0.1848942898D+00 E2=     -0.9511034266D-01
     beta-beta   T2 =       0.0000000000D+00 E2=      0.0000000000D+00
 ANorm=    0.1088528497D+01
 E2 =    -0.9511034266D-01 EUMP2 =    -0.92974298994985D+00
 Orbital symmetries:
       Occupied  (SGG)
       Virtual   (SGU) (SGG) (SGU) (PIU) (PIU) (SGG) (PIG) (PIG)
                 (SGU) (SGG) (SGU) (PIU) (PIU) (DLTG) (DLTG) (SGG)
                 (DLTU) (DLTU) (PIG) (PIG) (PIU) (PIU) (SGU) (PIG)
                 (PIG) (SGG) (SGU) (PIU) (PIU) (SGG) (DLTG) (DLTG)
                 (PHIU) (PHIU) (PHIG) (PHIG) (DLTU) (DLTU) (SGU)
                 (SGG) (PIG) (PIG) (SGU) (DLTG) (DLTG) (PIU) (PIU)
                 (DLTU) (DLTU) (SGG) (PIU) (PIU) (PIG) (PIG) (PIG)
                 (PIG) (SGU) (SGG) (SGU) (PIU) (PIU) (DLTG) (DLTG)
                 (SGG) (PHIU) (PHIU) (PHIG) (PHIG) (DLTU) (DLTU)
                 (PIG) (PIG) (SGU) (SGG) (SGU) (PIU) (PIU) (SGG)
                 (PIG) (PIG) (SGU) (DLTG) (DLTG) (PIU) (PIU) (DLTU)
                 (DLTU) (PIG) (PIG) (SGG) (SGU)
 Generating guess from densities on rwf.
 Convergence on wavefunction:    0.001000000000000
 Iteration     1 Dimension     3 NMult     3
 Iteration     2 Dimension     6 NMult     6
 Iteration     3 Dimension     9 NMult     9
 ***********************************************************************
 Excited states from <AA,BB:AA,BB> singles matrix:
 ***********************************************************************
 
 Ground to excited state transition electric dipole moments (Au):
       state          X           Y           Z        Dip. S.      Osc.
         1         0.0000      0.0000     -3.8893     15.1270      1.9080
         2         0.0000      0.0000      0.0000      0.0000      0.0000
         3        -1.1568      1.2107      0.0000      2.8040      0.5550
 Ground to excited state transition velocity dipole moments (Au):
       state          X           Y           Z        Dip. S.      Osc.
         1         0.0000      0.0000      0.1757      0.0309      0.1087
         2         0.0000      0.0000      0.0000      0.0000      0.0000
         3         0.3073     -0.3216      0.0000      0.1978      0.4442
 Ground to excited state transition magnetic dipole moments (Au):
       state          X           Y           Z
         1         0.0000      0.0000      0.0000
         2         0.0000      0.0000      0.0000
         3         0.0000      0.0000      0.0000
 <0|del|b> * <b|rxdel|0> + <0|del|b> * <b|delr+rdel|0>
 Rotatory Strengths (R) in cgs (10**-40 erg-esu-cm/Gauss)
       state          XX          YY          ZZ    R(velocity)
         1         0.0000      0.0000      0.0000      0.0000
 Total R(velocity) tensor for State=          1
                 1             2             3 
      1   0.000000D+00  0.000000D+00  0.000000D+00
      2   0.000000D+00  0.000000D+00  0.000000D+00
      3   0.000000D+00  0.000000D+00  0.000000D+00
 R(velocity) tensor in inp. orien. for State=          1
                 1             2             3 
      1   0.000000D+00  0.000000D+00  0.000000D+00
      2   0.000000D+00  0.000000D+00  0.000000D+00
      3   0.000000D+00  0.000000D+00  0.000000D+00
         2         0.0000      0.0000      0.0000      0.0000
 Total R(velocity) tensor for State=          2
                 1             2             3 
      1   0.000000D+00  0.000000D+00  0.000000D+00
      2   0.000000D+00  0.000000D+00  0.000000D+00
      3   0.000000D+00  0.000000D+00  0.000000D+00
 R(velocity) tensor in inp. orien. for State=          2
                 1             2             3 
      1   0.000000D+00  0.000000D+00  0.000000D+00
      2   0.000000D+00  0.000000D+00  0.000000D+00
      3   0.000000D+00  0.000000D+00  0.000000D+00
         3         0.0000      0.0000      0.0000      0.0000
 Total R(velocity) tensor for State=          3
                 1             2             3 
      1   0.000000D+00  0.000000D+00  0.000000D+00
      2   0.000000D+00  0.000000D+00  0.000000D+00
      3   0.000000D+00  0.000000D+00  0.000000D+00
 R(velocity) tensor in inp. orien. for State=          3
                 1             2             3 
      1   0.000000D+00  0.000000D+00  0.000000D+00
      2   0.000000D+00  0.000000D+00  0.000000D+00
      3   0.000000D+00  0.000000D+00  0.000000D+00
 1/2[<0|r|b>*<b|rxdel|0> + (<0|rxdel|b>*<b|r|0>)*]
 Rotatory Strengths (R) in cgs (10**-40 erg-esu-cm/Gauss)
       state          XX          YY          ZZ     R(length)     R(au)
         1         0.0000      0.0000      0.0000      0.0000      0.0000
         2         0.0000      0.0000      0.0000      0.0000      0.0000
         3         0.0000      0.0000      0.0000      0.0000      0.0000
  1/2[<0|del|b>*<b|r|0> + (<0|r|b>*<b|del|0>)*] (Au)
       state          X           Y           Z        Dip. S.   Osc.(frdel)
         1         0.0000      0.0000     -0.6833      0.6833      0.4555
         2         0.0000      0.0000      0.0000      0.0000      0.0000
         3        -0.3554     -0.3894      0.0000      0.7448      0.4965
 Ground to excited state transition densities written to RWF  633

 Excitation energies and oscillator strengths:
 
 Excited State   1:      Singlet-SGU    5.1484 eV  240.82 nm  f=1.9080  <S**2>=0.000
       1 ->  2         0.67564
       1 ->  4         0.18783
 This state for optimization and/or second-order correction.
 Copying the excited state density for this state as the 1-particle RhoCI density.
 
 Excited State   2:      Singlet-SGG    7.0360 eV  176.21 nm  f=0.0000  <S**2>=0.000
       1 ->  3         0.70589
 
 Excited state symmetry could not be determined.
 Excited State   3:      Singlet-?Sym    8.0796 eV  153.45 nm  f=0.5550  <S**2>=0.000
       1 ->  5         0.48803
       1 ->  6        -0.51081
 SavETr:  write IOETrn=   770 NScale= 10 NData=  16 NLR=1 LETran=      62.
 Scan completed.

 Summary of the potential surface scan:
   N       r          SCF          MP2          CIS    
 ----  ---------  -----------  -----------  -----------
    1     0.5000     -1.06470     -1.09761     -0.50647
    2     0.6000     -1.11620     -1.14912     -0.59777
    3     0.7000     -1.13263     -1.16575     -0.65076
    4     0.8000     -1.13076     -1.16427     -0.68156
    5     0.9000     -1.11916     -1.15324     -0.69934
    6     1.0000     -1.10249     -1.13733     -0.70924
    7     1.1000     -1.08337     -1.11916     -0.71423
    8     1.2000     -1.06333     -1.10027     -0.71610
    9     1.3000     -1.04326     -1.08155     -0.71593
   10     1.4000     -1.02369     -1.06353     -0.71437
   11     1.5000     -1.00492     -1.04653     -0.71184
   12     1.6000     -0.98711     -1.03072     -0.70860
   13     1.7000     -0.97034     -1.01616     -0.70484
   14     1.8000     -0.95463     -1.00289     -0.70069
   15     1.9000     -0.93998     -0.99090     -0.69625
   16     2.0000     -0.92633     -0.98017     -0.69161
   17     2.1000     -0.91366     -0.97063     -0.68684
   18     2.2000     -0.90191     -0.96225     -0.68201
   19     2.3000     -0.89103     -0.95497     -0.67715
   20     2.4000     -0.88096     -0.94872     -0.67231
   21     2.5000     -0.87165     -0.94345     -0.66754
   22     2.6000     -0.86304     -0.93909     -0.66286
   23     2.7000     -0.85508     -0.93560     -0.65829
   24     2.8000     -0.84772     -0.93291     -0.65385
   25     2.9000     -0.84092     -0.93098     -0.64956
   26     3.0000     -0.83463     -0.92974     -0.64543
 ----  ---------  -----------  -----------  -----------
  
 1|1|UNPC-HPBOOK|Scan|RCIS-FC|Aug-CC-pVQZ|H2|PAPO|08-Apr-2013|1||# CIS/
 aug-cc-pVQZ scan||hydrogen molecule||0,1|H|H,1,r||r=0.5,s,25,0.1||Vers
 ion=IA32W-G09RevA.02|HF=-1.0646974,-1.1162038,-1.1326336,-1.130764,-1.
 1191637,-1.102488,-1.0833676,-1.063326,-1.043258,-1.0236889,-1.0049198
 ,-0.9871127,-0.9703437,-0.9546348,-0.9399751,-0.9263326,-0.9136628,-0.
 9019145,-0.8910328,-0.8809624,-0.871648,-0.8630364,-0.8550764,-0.84771
 92,-0.840919,-0.8346326|MP2=-1.0976091,-1.1491216,-1.1657508,-1.164268
 2,-1.1532437,-1.1373312,-1.1191631,-1.1002682,-1.0815481,-1.0635345,-1
 .0465344,-1.0307156,-1.0161592,-1.0028916,-0.9909043,-0.9801664,-0.970
 6333,-0.9622524,-0.9549668,-0.9487177,-0.9434459,-0.9390927,-0.9356006
 ,-0.9329139,-0.9309786,-0.929743|RMSD=3.934e-009,4.411e-009,5.037e-009
 ,5.154e-009,2.781e-009,4.259e-009,4.084e-009,4.027e-009,3.743e-009,3.2
 85e-009,2.775e-009,2.315e-009,1.952e-009,1.689e-009,1.516e-009,1.411e-
 009,1.332e-009,1.249e-009,1.157e-009,1.068e-009,9.885e-010,9.211e-010,
 8.642e-010,8.158e-010,7.731e-010,7.335e-010|PG=D*H [C*(H1.H1)]||@


 YOU CANNOT THROW TO THE GROUND THE LETTERS OF
 THE GREEK ALPHABET AND PICK UP THE ILIAD.
        - RUFUS CHOATE, 1799-1859
 Job cpu time:  0 days  0 hours  3 minutes  1.0 seconds.
 File lengths (MBytes):  RWF=     28 Int=      0 D2E=      0 Chk=      2 Scr=      1
 Normal termination of Gaussian 09 at Mon Apr 08 09:59:27 2013.
